
     Program PWSCF v.6.8 starts on  3Mar2025 at 14:14:47 

     This program is part of the open-source Quantum ESPRESSO suite
     for quantum simulation of materials; please cite
         "P. Giannozzi et al., J. Phys.:Condens. Matter 21 395502 (2009);
         "P. Giannozzi et al., J. Phys.:Condens. Matter 29 465901 (2017);
         "P. Giannozzi et al., J. Chem. Phys. 152 154105 (2020);
          URL http://www.quantum-espresso.org", 
     in publications or presentations arising from this work. More details at
     http://www.quantum-espresso.org/quote

     Parallel version (MPI & OpenMP), running on      24 processor cores
     Number of MPI processes:                24
     Threads/MPI process:                     1

     MPI processes distributed on     1 nodes
     R & G space division:  proc/nbgrp/npool/nimage =      24
     145904 MiB available memory on the printing compute node when the environment starts
 
     Waiting for input...
     Reading input from standard input

     Current dimensions of program PWSCF are:
     Max number of different atomic species (ntypx) = 10
     Max number of k-points (npk) =  40000
     Max angular momentum in pseudopotentials (lmaxx) =  4
     Found symmetry operation: I + (  0.0000  0.3333  0.0000)
     This is a supercell, fractional translations are disabled

     Subspace diagonalization in iterative solution of the eigenvalue problem:
     a serial algorithm will be used

 
     Parallelization info
     --------------------
     sticks:   dense  smooth     PW     G-vecs:    dense   smooth      PW
     Min         673     673    173               230617   230617   30245
     Max         674     674    174               230631   230631   30258
     Sum       16153   16153   4171              5535073  5535073  726027
 
     Using Slab Decomposition
 

     Title: 
     NB relax                                                                   


     bravais-lattice index     =            8
     lattice parameter (alat)  =      28.1190  a.u.
     unit-cell volume          =   47987.7937 (a.u.)^3
     number of atoms/cell      =           54
     number of atomic types    =            2
     number of electrons       =       378.00
     number of Kohn-Sham states=          227
     kinetic-energy cutoff     =      90.0000  Ry
     charge density cutoff     =     360.0000  Ry
     scf convergence threshold =      1.0E-08
     mixing beta               =       0.7000
     number of iterations used =            8  plain     mixing
     energy convergence thresh.=      1.0E-05
     force convergence thresh. =      1.0E-04
     Exchange-correlation= SLA-PW-PBX-PBC
                           (   1   4   3   4   0   0   0)
     nstep                     =          100


     celldm(1)=  28.119000  celldm(2)=   0.713710  celldm(3)=   3.024194
     celldm(4)=   0.000000  celldm(5)=   0.000000  celldm(6)=   0.000000

     crystal axes: (cart. coord. in units of alat)
               a(1) = (   1.000000   0.000000   0.000000 )  
               a(2) = (   0.000000   0.713710   0.000000 )  
               a(3) = (   0.000000   0.000000   3.024194 )  

     reciprocal axes: (cart. coord. in units 2 pi/alat)
               b(1) = (  1.000000  0.000000  0.000000 )  
               b(2) = (  0.000000  1.401130  0.000000 )  
               b(3) = (  0.000000  0.000000  0.330667 )  


     PseudoPot. # 1 for Nb read from file:
     /home/fernando/serse/pseudos/Nb.pbe-sp-hgh.UPF
     MD5 check sum: 9806bd744c6e87f68d8a90a6c9e3b9fe
     Pseudo is Norm-conserving, Zval = 13.0
     Generated in analytical, separable form
     Using radial grid of 1227 points,  6 beta functions with: 
                l(1) =   0
                l(2) =   0
                l(3) =   1
                l(4) =   1
                l(5) =   2
                l(6) =   2

     PseudoPot. # 2 for C  read from file:
     /home/fernando/serse/pseudos/C.pbe-hgh.UPF
     MD5 check sum: ca26ff84b356733038fc2f5c468d1892
     Pseudo is Norm-conserving, Zval =  4.0
     Generated in analytical, separable form
     Using radial grid of 1073 points,  1 beta functions with: 
                l(1) =   0

     atomic species   valence    mass     pseudopotential
        Nb            13.00    92.90638     Nb( 1.00)
        C              4.00    12.01100     C ( 1.00)

      2 Sym. Ops. (no inversion) found



   Cartesian axes

     site n.     atom                  positions (alat units)
         1           Nb  tau(   1) = (   0.0000000   0.1181889   0.0835051  )
         2           Nb  tau(   2) = (   0.0000000   0.3560922   0.0835051  )
         3           Nb  tau(   3) = (   0.0000000   0.5939954   0.0835051  )
         4           Nb  tau(   4) = (   0.1666667   0.7129537   0.0720485  )
         5           Nb  tau(   5) = (   0.1666667   0.4750505   0.0720485  )
         6           Nb  tau(   6) = (   0.1666667   0.2371473   0.0720485  )
         7           Nb  tau(   7) = (   0.3333333   0.1181889   0.0835051  )
         8           Nb  tau(   8) = (   0.3333333   0.3560922   0.0835051  )
         9           Nb  tau(   9) = (   0.3333333   0.5939954   0.0835051  )
        10           Nb  tau(  10) = (   0.5000000   0.7129537   0.0720485  )
        11           Nb  tau(  11) = (   0.5000000   0.4750505   0.0720485  )
        12           Nb  tau(  12) = (   0.5000000   0.2371473   0.0720485  )
        13           Nb  tau(  13) = (   0.6666667   0.1181889   0.0835051  )
        14           Nb  tau(  14) = (   0.6666667   0.3560922   0.0835051  )
        15           Nb  tau(  15) = (   0.6666667   0.5939954   0.0835051  )
        16           Nb  tau(  16) = (   0.8333333   0.7129537   0.0720485  )
        17           Nb  tau(  17) = (   0.8333333   0.4750505   0.0720485  )
        18           Nb  tau(  18) = (   0.8333333   0.2371473   0.0720485  )
        19           C   tau(  19) = (   0.0460841   0.7129454   0.0019271  )
        20           C   tau(  20) = (   0.0460841   0.4750422   0.0019271  )
        21           C   tau(  21) = (   0.0460841   0.2371390   0.0019271  )
        22           C   tau(  22) = (   0.1205839   0.1181902   0.1536294  )
        23           C   tau(  23) = (   0.1205839   0.3560935   0.1536294  )
        24           C   tau(  24) = (   0.1205839   0.5939967   0.1536294  )
        25           C   tau(  25) = (   0.2127494   0.5939967   0.1536294  )
        26           C   tau(  26) = (   0.2127494   0.3560935   0.1536294  )
        27           C   tau(  27) = (   0.2127494   0.1181902   0.1536294  )
        28           C   tau(  28) = (   0.2872492   0.7129454   0.0019271  )
        29           C   tau(  29) = (   0.3794174   0.7129454   0.0019271  )
        30           C   tau(  30) = (   0.2872492   0.4750422   0.0019271  )
        31           C   tau(  31) = (   0.3794174   0.4750422   0.0019271  )
        32           C   tau(  32) = (   0.2872492   0.2371390   0.0019271  )
        33           C   tau(  33) = (   0.3794174   0.2371390   0.0019271  )
        34           C   tau(  34) = (   0.4539172   0.1181902   0.1536294  )
        35           C   tau(  35) = (   0.5460828   0.1181902   0.1536294  )
        36           C   tau(  36) = (   0.4539172   0.3560935   0.1536294  )
        37           C   tau(  37) = (   0.5460828   0.3560935   0.1536294  )
        38           C   tau(  38) = (   0.4539172   0.5939967   0.1536294  )
        39           C   tau(  39) = (   0.5460828   0.5939967   0.1536294  )
        40           C   tau(  40) = (   0.6205826   0.7129454   0.0019271  )
        41           C   tau(  41) = (   0.7127508   0.7129454   0.0019271  )
        42           C   tau(  42) = (   0.6205826   0.4750422   0.0019271  )
        43           C   tau(  43) = (   0.7127508   0.4750422   0.0019271  )
        44           C   tau(  44) = (   0.6205826   0.2371390   0.0019271  )
        45           C   tau(  45) = (   0.7127508   0.2371390   0.0019271  )
        46           C   tau(  46) = (   0.7872505   0.1181902   0.1536294  )
        47           C   tau(  47) = (   0.8794161   0.1181902   0.1536294  )
        48           C   tau(  48) = (   0.7872505   0.3560935   0.1536294  )
        49           C   tau(  49) = (   0.9539159   0.2371390   0.0019271  )
        50           C   tau(  50) = (   0.9539159   0.4750422   0.0019271  )
        51           C   tau(  51) = (   0.9539159   0.7129454   0.0019271  )
        52           C   tau(  52) = (   0.7872505   0.5939967   0.1536294  )
        53           C   tau(  53) = (   0.8794161   0.5939967   0.1536294  )
        54           C   tau(  54) = (   0.8794161   0.3560935   0.1536294  )

     number of k points=     9  Gaussian smearing, width (Ry)=  0.0100
                       cart. coord. in units 2pi/alat
        k(    1) = (   0.0000000   0.0000000   0.0000000), wk =   0.0800000
        k(    2) = (   0.0000000   0.2802260   0.0000000), wk =   0.1600000
        k(    3) = (   0.0000000   0.5604520   0.0000000), wk =   0.1600000
        k(    4) = (   0.2000000   0.0000000   0.0000000), wk =   0.1600000
        k(    5) = (   0.2000000   0.2802260   0.0000000), wk =   0.3200000
        k(    6) = (   0.2000000   0.5604520   0.0000000), wk =   0.3200000
        k(    7) = (   0.4000000   0.0000000   0.0000000), wk =   0.1600000
        k(    8) = (   0.4000000   0.2802260   0.0000000), wk =   0.3200000
        k(    9) = (   0.4000000   0.5604520   0.0000000), wk =   0.3200000

     Dense  grid:  5535073 G-vectors     FFT dimensions: ( 180, 125, 540)

     Estimated max dynamical RAM per process >       1.67 GB

     Estimated total dynamical RAM >      40.04 GB

     Initial potential from superposition of free atoms

     starting charge  143.99850, renormalised to  378.00000

     negative rho (up, down):  2.132E-03 0.000E+00
     Starting wfcs are  144 randomized atomic wfcs +   83 random wfcs

     total cpu time spent up to now is      311.5 secs

     Self-consistent Calculation

     iteration #  1     ecut=    90.00 Ry     beta= 0.70
     Davidson diagonalization with overlap
     c_bands:  1 eigenvalues not converged
     ethr =  1.00E-02,  avg # of iterations = 16.9

     negative rho (up, down):  2.228E-04 0.000E+00

     total cpu time spent up to now is     3412.6 secs

     total energy              =   -1530.84112071 Ry
     estimated scf accuracy    <    3813.94421041 Ry

     iteration #  2     ecut=    90.00 Ry     beta= 0.70
     Davidson diagonalization with overlap
     ethr =  1.00E-02,  avg # of iterations = 15.8

     total cpu time spent up to now is     6453.8 secs

     total energy              =   -1463.99041513 Ry
     estimated scf accuracy    <    2379.85389051 Ry

     iteration #  3     ecut=    90.00 Ry     beta= 0.70
     Davidson diagonalization with overlap
     c_bands:  1 eigenvalues not converged
     c_bands:  1 eigenvalues not converged
     c_bands:  3 eigenvalues not converged
     c_bands:  1 eigenvalues not converged
     c_bands:  1 eigenvalues not converged
     c_bands:  1 eigenvalues not converged
     ethr =  1.00E-02,  avg # of iterations = 20.0

     total cpu time spent up to now is     9827.0 secs

     total energy              =   -2484.55041742 Ry
     estimated scf accuracy    <     473.78133304 Ry

     iteration #  4     ecut=    90.00 Ry     beta= 0.70
     Davidson diagonalization with overlap
     ethr =  1.00E-02,  avg # of iterations =  8.7

     total cpu time spent up to now is    11062.4 secs

     total energy              =   -2496.54336872 Ry
     estimated scf accuracy    <      82.13023512 Ry

     iteration #  5     ecut=    90.00 Ry     beta= 0.70
     Davidson diagonalization with overlap
     ethr =  1.00E-02,  avg # of iterations =  2.1

     total cpu time spent up to now is    11823.6 secs

     total energy              =   -2500.41337295 Ry
     estimated scf accuracy    <      95.01546779 Ry

     iteration #  6     ecut=    90.00 Ry     beta= 0.70
     Davidson diagonalization with overlap
     ethr =  1.00E-02,  avg # of iterations =  1.0

     total cpu time spent up to now is    12464.7 secs

     total energy              =   -2488.15136383 Ry
     estimated scf accuracy    <      83.83987992 Ry

     iteration #  7     ecut=    90.00 Ry     beta= 0.70
     Davidson diagonalization with overlap
     ethr =  1.00E-02,  avg # of iterations =  1.0

     total cpu time spent up to now is    13104.5 secs

     total energy              =   -2479.06126845 Ry
     estimated scf accuracy    <      54.79764030 Ry

     iteration #  8     ecut=    90.00 Ry     beta= 0.70
     Davidson diagonalization with overlap
     ethr =  1.00E-02,  avg # of iterations =  1.0

     total cpu time spent up to now is    13746.7 secs

     total energy              =   -2474.20774767 Ry
     estimated scf accuracy    <      35.99554403 Ry

     iteration #  9     ecut=    90.00 Ry     beta= 0.70
     Davidson diagonalization with overlap
     ethr =  9.52E-03,  avg # of iterations =  1.0

     total cpu time spent up to now is    14391.4 secs

     total energy              =   -2471.72295469 Ry
     estimated scf accuracy    <      25.82654780 Ry

     iteration # 10     ecut=    90.00 Ry     beta= 0.70
     Davidson diagonalization with overlap
     ethr =  6.83E-03,  avg # of iterations =  1.2

     total cpu time spent up to now is    15049.8 secs

     total energy              =   -2460.71268378 Ry
     estimated scf accuracy    <      16.95906013 Ry

     iteration # 11     ecut=    90.00 Ry     beta= 0.70
     Davidson diagonalization with overlap
     ethr =  4.49E-03,  avg # of iterations =  5.4

     total cpu time spent up to now is    15914.8 secs

     total energy              =   -2464.28089011 Ry
     estimated scf accuracy    <       3.19168587 Ry

     iteration # 12     ecut=    90.00 Ry     beta= 0.70
     Davidson diagonalization with overlap
     ethr =  8.44E-04,  avg # of iterations = 10.0

     total cpu time spent up to now is    16778.7 secs

     total energy              =   -2464.36596007 Ry
     estimated scf accuracy    <       1.45092072 Ry

     iteration # 13     ecut=    90.00 Ry     beta= 0.70
     Davidson diagonalization with overlap
     ethr =  3.84E-04,  avg # of iterations =  8.7

     total cpu time spent up to now is    17561.9 secs

     total energy              =   -2464.03497833 Ry
     estimated scf accuracy    <       0.77630284 Ry

     iteration # 14     ecut=    90.00 Ry     beta= 0.70
     Davidson diagonalization with overlap
     ethr =  2.05E-04,  avg # of iterations =  8.0

     total cpu time spent up to now is    18618.4 secs

     total energy              =   -2464.21257866 Ry
     estimated scf accuracy    <       1.50213329 Ry

     iteration # 15     ecut=    90.00 Ry     beta= 0.70
     Davidson diagonalization with overlap
     ethr =  2.05E-04,  avg # of iterations =  3.8

     total cpu time spent up to now is    19338.3 secs

     total energy              =   -2464.28822112 Ry
     estimated scf accuracy    <       0.29715694 Ry

     iteration # 16     ecut=    90.00 Ry     beta= 0.70
     Davidson diagonalization with overlap
     c_bands:  3 eigenvalues not converged
     c_bands:  1 eigenvalues not converged
     ethr =  7.86E-05,  avg # of iterations = 11.3

     total cpu time spent up to now is    20239.4 secs

     total energy              =   -2464.30956853 Ry
     estimated scf accuracy    <       0.10488621 Ry

     iteration # 17     ecut=    90.00 Ry     beta= 0.70
     Davidson diagonalization with overlap
     c_bands:  1 eigenvalues not converged
     c_bands:  2 eigenvalues not converged
     ethr =  2.77E-05,  avg # of iterations = 17.0

     total cpu time spent up to now is    21276.6 secs

     total energy              =   -2464.31950476 Ry
     estimated scf accuracy    <       0.06182805 Ry

     iteration # 18     ecut=    90.00 Ry     beta= 0.70
     Davidson diagonalization with overlap
     ethr =  1.64E-05,  avg # of iterations =  5.1

     total cpu time spent up to now is    22061.2 secs

     total energy              =   -2464.32269569 Ry
     estimated scf accuracy    <       0.01744870 Ry

     iteration # 19     ecut=    90.00 Ry     beta= 0.70
     Davidson diagonalization with overlap
     c_bands:  1 eigenvalues not converged
     ethr =  4.62E-06,  avg # of iterations = 10.8

     total cpu time spent up to now is    22984.0 secs

     total energy              =   -2464.32445294 Ry
     estimated scf accuracy    <       0.00459833 Ry

     iteration # 20     ecut=    90.00 Ry     beta= 0.70
     Davidson diagonalization with overlap
     c_bands:  1 eigenvalues not converged
     ethr =  1.22E-06,  avg # of iterations = 10.9

     total cpu time spent up to now is    23902.0 secs

     total energy              =   -2464.32502395 Ry
     estimated scf accuracy    <       0.00267477 Ry

     iteration # 21     ecut=    90.00 Ry     beta= 0.70
     Davidson diagonalization with overlap
     c_bands:  2 eigenvalues not converged
     ethr =  7.08E-07,  avg # of iterations =  5.0

     total cpu time spent up to now is    24649.2 secs

     total energy              =   -2464.32520372 Ry
     estimated scf accuracy    <       0.00233104 Ry

     iteration # 22     ecut=    90.00 Ry     beta= 0.70
     Davidson diagonalization with overlap
     ethr =  6.17E-07,  avg # of iterations =  2.8

     total cpu time spent up to now is    25323.2 secs

     total energy              =   -2464.32538279 Ry
     estimated scf accuracy    <       0.00025942 Ry

     iteration # 23     ecut=    90.00 Ry     beta= 0.70
     Davidson diagonalization with overlap
     ethr =  6.86E-08,  avg # of iterations =  5.7

     total cpu time spent up to now is    26154.9 secs

     total energy              =   -2464.32542457 Ry
     estimated scf accuracy    <       0.00016124 Ry

     iteration # 24     ecut=    90.00 Ry     beta= 0.70
     Davidson diagonalization with overlap
     ethr =  4.27E-08,  avg # of iterations =  2.6

     total cpu time spent up to now is    26873.8 secs

     total energy              =   -2464.32543360 Ry
     estimated scf accuracy    <       0.00005650 Ry

     iteration # 25     ecut=    90.00 Ry     beta= 0.70
     Davidson diagonalization with overlap
     ethr =  1.49E-08,  avg # of iterations =  5.4

     total cpu time spent up to now is    27719.4 secs

     total energy              =   -2464.32543152 Ry
     estimated scf accuracy    <       0.00007275 Ry

     iteration # 26     ecut=    90.00 Ry     beta= 0.70
     Davidson diagonalization with overlap
     ethr =  1.49E-08,  avg # of iterations =  6.0

     total cpu time spent up to now is    28599.7 secs

     total energy              =   -2464.32542039 Ry
     estimated scf accuracy    <       0.00029456 Ry

     iteration # 27     ecut=    90.00 Ry     beta= 0.70
     Davidson diagonalization with overlap
     ethr =  1.49E-08,  avg # of iterations =  5.7

     total cpu time spent up to now is    29412.9 secs

     total energy              =   -2464.32543985 Ry
     estimated scf accuracy    <       0.00009973 Ry

     iteration # 28     ecut=    90.00 Ry     beta= 0.70
     Davidson diagonalization with overlap
     ethr =  1.49E-08,  avg # of iterations =  2.0

     total cpu time spent up to now is    30096.2 secs

     total energy              =   -2464.32544530 Ry
     estimated scf accuracy    <       0.00001967 Ry

     iteration # 29     ecut=    90.00 Ry     beta= 0.70
     Davidson diagonalization with overlap
     ethr =  5.20E-09,  avg # of iterations =  4.0

     total cpu time spent up to now is    30821.4 secs

     total energy              =   -2464.32544646 Ry
     estimated scf accuracy    <       0.00001015 Ry

     iteration # 30     ecut=    90.00 Ry     beta= 0.70
     Davidson diagonalization with overlap
     ethr =  2.69E-09,  avg # of iterations =  2.8

     total cpu time spent up to now is    31521.6 secs

     total energy              =   -2464.32544741 Ry
     estimated scf accuracy    <       0.00000140 Ry

     iteration # 31     ecut=    90.00 Ry     beta= 0.70
     Davidson diagonalization with overlap
     ethr =  3.71E-10,  avg # of iterations =  6.0

     total cpu time spent up to now is    32432.3 secs

     total energy              =   -2464.32544752 Ry
     estimated scf accuracy    <       0.00000208 Ry

     iteration # 32     ecut=    90.00 Ry     beta= 0.70
     Davidson diagonalization with overlap
     ethr =  3.71E-10,  avg # of iterations =  5.3

     total cpu time spent up to now is    33239.3 secs

     total energy              =   -2464.32544761 Ry
     estimated scf accuracy    <       0.00000184 Ry

     iteration # 33     ecut=    90.00 Ry     beta= 0.70
     Davidson diagonalization with overlap
     ethr =  3.71E-10,  avg # of iterations =  4.7

     total cpu time spent up to now is    34027.5 secs

     total energy              =   -2464.32544770 Ry
     estimated scf accuracy    <       0.00000168 Ry

     iteration # 34     ecut=    90.00 Ry     beta= 0.70
     Davidson diagonalization with overlap
     ethr =  3.71E-10,  avg # of iterations =  2.0

     total cpu time spent up to now is    34711.2 secs

     total energy              =   -2464.32544785 Ry
     estimated scf accuracy    <       0.00000008 Ry

     iteration # 35     ecut=    90.00 Ry     beta= 0.70
     Davidson diagonalization with overlap
     ethr =  2.07E-11,  avg # of iterations =  6.1

     total cpu time spent up to now is    35638.4 secs

     total energy              =   -2464.32544786 Ry
     estimated scf accuracy    <       0.00000004 Ry

     iteration # 36     ecut=    90.00 Ry     beta= 0.70
     Davidson diagonalization with overlap
     ethr =  9.74E-12,  avg # of iterations =  6.0

     total cpu time spent up to now is    36543.9 secs

     total energy              =   -2464.32544785 Ry
     estimated scf accuracy    <       0.00000024 Ry

     iteration # 37     ecut=    90.00 Ry     beta= 0.70
     Davidson diagonalization with overlap
     ethr =  9.74E-12,  avg # of iterations =  6.0

     total cpu time spent up to now is    37450.7 secs

     total energy              =   -2464.32544785 Ry
     estimated scf accuracy    <       0.00000038 Ry

     iteration # 38     ecut=    90.00 Ry     beta= 0.70
     Davidson diagonalization with overlap
     ethr =  9.74E-12,  avg # of iterations =  5.7

     total cpu time spent up to now is    38300.2 secs

     total energy              =   -2464.32544786 Ry
     estimated scf accuracy    <       0.00000013 Ry

     iteration # 39     ecut=    90.00 Ry     beta= 0.70
     Davidson diagonalization with overlap
     ethr =  9.74E-12,  avg # of iterations =  2.7

     total cpu time spent up to now is    39007.3 secs

     total energy              =   -2464.32544787 Ry
     estimated scf accuracy    <       0.00000002 Ry

     iteration # 40     ecut=    90.00 Ry     beta= 0.70
     Davidson diagonalization with overlap
     ethr =  5.05E-12,  avg # of iterations =  2.1

     total cpu time spent up to now is    39703.9 secs

     End of self-consistent calculation

          k = 0.0000 0.0000 0.0000 (691861 PWs)   bands (ev):

   -60.6968 -60.6711 -60.6711 -60.6645 -60.6645 -60.6516 -60.6516 -60.6516
   -60.6516 -60.6256 -60.6256 -60.6256 -60.6256 -60.6193 -60.6192 -60.6127
   -60.6127 -60.5932 -36.0121 -36.0121 -36.0121 -36.0121 -35.9227 -35.9140
   -35.9140 -35.9140 -35.9140 -35.8946 -35.8946 -35.8254 -35.7649 -35.7649
   -35.7525 -35.7524 -35.7492 -35.7492 -35.7336 -35.7336 -35.7181 -35.6610
   -35.6610 -35.6581 -35.6581 -35.6382 -35.6382 -35.6382 -35.6382 -35.6078
   -35.6078 -35.6034 -35.6034 -35.5986 -35.5985 -35.5985 -35.5985 -35.5788
   -35.5788 -35.5615 -35.5272 -35.4822 -35.4822 -35.4822 -35.4822 -35.3690
   -35.3690 -35.3615 -35.3615 -35.3212 -35.3212 -35.3212 -35.3212 -35.1798
   -18.8765 -18.6574 -18.6574 -18.4890 -18.4890 -18.4621 -18.4568 -18.4568
   -18.3578 -18.3578 -18.3578 -18.3578 -18.3030 -18.3030 -18.2669 -18.2669
   -18.2669 -18.2669 -11.6987 -11.6987 -11.6987 -11.6987 -11.5894 -11.5894
   -11.3677 -11.3535 -11.3535 -11.3535 -11.3535 -11.0588 -11.0588 -10.8863
   -10.8863 -10.4523 -10.4523 -10.1027 -10.0658  -9.7264  -9.7264  -9.1946
    -9.0126  -9.0126  -8.8124  -8.8124  -8.8124  -8.8124  -8.8032  -8.8024
    -8.8024  -8.6997  -8.6997  -8.6428  -8.6428  -8.5631  -8.5631  -8.2409
    -8.2409  -8.2300  -8.2300  -8.2300  -8.2300  -8.2085  -8.2085  -8.2085
    -8.2085  -8.1600  -8.1600  -8.1261  -8.0226  -8.0226  -7.8076  -7.8076
    -7.8076  -7.8076  -7.7664  -7.6268  -7.6268  -7.5709  -7.5709  -7.5709
    -7.5709  -7.5136  -7.5136  -7.5136  -7.5136  -7.2366  -7.2155  -7.2155
    -7.1935  -7.1456  -7.1456  -7.0118  -7.0118  -6.1677  -6.1677  -6.1677
    -6.1677  -6.0841  -6.0841  -5.2376  -5.2376  -4.9451  -4.9451  -4.9451
    -4.9451  -4.8396  -4.8396  -4.8396  -4.8396  -4.2216  -4.2216  -4.2088
    -4.2088  -4.0251  -4.0250  -4.0250  -4.0250  -3.8507  -3.8507  -3.5652
    -3.5652  -2.7876  -2.6438  -2.6438  -2.3997  -2.3489  -2.3411  -2.3411
    -2.3036  -2.3036  -2.2482  -2.2482  -2.2482  -2.2482  -2.0778  -2.0778
    -1.8712  -1.8712  -1.8712  -1.8712  -1.6865  -1.6865  -1.2147  -1.2147
    -1.1050  -1.0993  -1.0651  -1.0035  -1.0035  -0.9341  -0.9305  -0.9202
    -0.8517  -0.8517  -0.8517

          k = 0.0000 0.2802 0.0000 (691857 PWs)   bands (ev):

   -60.6954 -60.6750 -60.6702 -60.6702 -60.6577 -60.6577 -60.6533 -60.6453
   -60.6453 -60.6292 -60.6292 -60.6230 -60.6230 -60.6212 -60.6194 -60.6194
   -60.6056 -60.5940 -36.0320 -36.0320 -35.9761 -35.9761 -35.9719 -35.9719
   -35.9144 -35.8952 -35.8828 -35.8436 -35.8436 -35.8308 -35.8160 -35.8160
   -35.8054 -35.7974 -35.7148 -35.7070 -35.7070 -35.6879 -35.6761 -35.6618
   -35.6548 -35.6548 -35.6497 -35.6497 -35.6396 -35.6366 -35.6366 -35.6271
   -35.6271 -35.6027 -35.6027 -35.5973 -35.5972 -35.5962 -35.5962 -35.5907
   -35.5694 -35.5645 -35.5367 -35.5302 -35.5302 -35.4372 -35.4372 -35.4318
   -35.3590 -35.3590 -35.3372 -35.3372 -35.3163 -35.3163 -35.2997 -35.1876
   -18.8543 -18.6398 -18.6398 -18.5935 -18.4512 -18.4444 -18.4444 -18.4364
   -18.4364 -18.3998 -18.3364 -18.3111 -18.3111 -18.2933 -18.2933 -18.2878
   -18.2386 -18.2386 -11.6900 -11.6900 -11.6830 -11.6830 -11.5980 -11.5980
   -11.4770 -11.4770 -11.3529 -11.2200 -11.2200 -11.1576 -10.9503 -10.9116
   -10.9116 -10.5817 -10.3293 -10.0867 -10.0842  -9.8697  -9.5321  -9.1494
    -9.0030  -9.0030  -8.9068  -8.9068  -8.8245  -8.7916  -8.7497  -8.7497
    -8.7206  -8.6910  -8.6910  -8.6864  -8.6864  -8.6709  -8.3797  -8.3478
    -8.3478  -8.3010  -8.3009  -8.1963  -8.1963  -8.1947  -8.1947  -8.1605
    -8.1605  -8.0814  -8.0814  -8.0604  -8.0401  -8.0401  -8.0193  -8.0009
    -7.7969  -7.7969  -7.7874  -7.7482  -7.7482  -7.6450  -7.6450  -7.6286
    -7.6286  -7.4486  -7.3318  -7.3318  -7.2866  -7.2866  -7.2451  -7.2267
    -7.2094  -7.0970  -7.0164  -6.9517  -6.9138  -6.2629  -6.2629  -6.1342
    -6.1342  -6.0142  -6.0142  -5.7866  -5.2310  -5.2310  -4.9059  -4.9059
    -4.8818  -4.8818  -4.6395  -4.4299  -4.4299  -4.3365  -4.3365  -4.3061
    -4.3061  -4.1164  -4.1164  -3.8391  -3.8185  -3.8185  -3.6196  -3.5747
    -3.5747  -2.9754  -2.9523  -2.4412  -2.4364  -2.3510  -2.3416  -2.3080
    -2.3080  -2.2050  -2.2050  -2.1982  -2.0732  -2.0454  -2.0454  -1.9940
    -1.8743  -1.8743  -1.8558  -1.8558  -1.6981  -1.6981  -1.5962  -1.4672
    -1.4537  -1.4196  -1.1342  -1.0917  -1.0917  -1.0600  -1.0600  -1.0523
    -0.9656  -0.9202  -0.8847

          k = 0.0000 0.5605 0.0000 (691868 PWs)   bands (ev):

   -60.6910 -60.6840 -60.6675 -60.6674 -60.6631 -60.6631 -60.6419 -60.6392
   -60.6392 -60.6338 -60.6338 -60.6311 -60.6212 -60.6212 -60.6201 -60.6201
   -60.6001 -60.5962 -36.0326 -36.0326 -36.0123 -36.0123 -35.9284 -35.9284
   -35.8899 -35.8809 -35.8735 -35.8735 -35.8645 -35.8506 -35.8503 -35.8454
   -35.7676 -35.7676 -35.7057 -35.6947 -35.6947 -35.6923 -35.6756 -35.6756
   -35.6613 -35.6613 -35.6292 -35.6265 -35.6265 -35.6216 -35.6172 -35.6172
   -35.6089 -35.6089 -35.6051 -35.5956 -35.5956 -35.5954 -35.5953 -35.5853
   -35.5834 -35.5797 -35.5797 -35.5618 -35.5534 -35.5075 -35.3969 -35.3969
   -35.3630 -35.3630 -35.3391 -35.3391 -35.3228 -35.3228 -35.2488 -35.2109
   -18.7916 -18.6996 -18.5903 -18.5903 -18.5183 -18.5183 -18.4210 -18.4105
   -18.4105 -18.3791 -18.3625 -18.3625 -18.3345 -18.2972 -18.2503 -18.2503
   -18.2321 -18.2321 -11.6534 -11.6533 -11.6506 -11.6506 -11.6215 -11.6215
   -11.5786 -11.5786 -11.3100 -11.2431 -11.0913 -11.0913 -10.9835 -10.9835
   -10.8339 -10.7104 -10.2214 -10.1375 -10.0414  -9.9705  -9.2924  -9.0313
    -9.0211  -8.9870  -8.9870  -8.9624  -8.9624  -8.8488  -8.8382  -8.8206
    -8.6292  -8.6292  -8.5953  -8.5953  -8.5448  -8.5448  -8.4997  -8.4997
    -8.4095  -8.4095  -8.3542  -8.3542  -8.2063  -8.1662  -8.1661  -8.1627
    -8.1627  -8.0844  -8.0844  -8.0771  -7.9629  -7.9629  -7.9382  -7.9382
    -7.9249  -7.8973  -7.8632  -7.8631  -7.8447  -7.6839  -7.6416  -7.6416
    -7.6337  -7.6337  -7.2682  -7.2445  -7.1992  -7.1604  -7.1604  -7.1570
    -7.1478  -7.1478  -6.8878  -6.8560  -6.6570  -6.2848  -6.2848  -6.2651
    -6.2294  -6.2294  -5.8092  -5.8092  -5.5499  -5.5499  -4.7863  -4.7863
    -4.7493  -4.7493  -4.5771  -4.5771  -4.5541  -4.5541  -4.0286  -4.0286
    -4.0230  -3.9203  -3.9203  -3.7812  -3.7812  -3.7178  -3.7178  -3.6013
    -3.4378  -3.2671  -3.2127  -2.7559  -2.4085  -2.2133  -2.1882  -2.1881
    -2.1739  -2.1388  -2.0360  -1.9698  -1.9645  -1.9644  -1.9522  -1.9522
    -1.8396  -1.8363  -1.8362  -1.8237  -1.8059  -1.8059  -1.7658  -1.7396
    -1.7396  -1.6384  -1.3734  -1.3733  -1.2921  -1.2921  -1.1938  -1.1631
    -1.1203  -1.1201  -1.0479

          k = 0.2000 0.0000 0.0000 (692005 PWs)   bands (ev):

   -60.6957 -60.6798 -60.6640 -60.6640 -60.6613 -60.6560 -60.6559 -60.6466
   -60.6466 -60.6306 -60.6306 -60.6292 -60.6212 -60.6212 -60.6132 -60.6132
   -60.6105 -60.5944 -36.0137 -36.0137 -35.9989 -35.9989 -35.9522 -35.9522
   -35.9156 -35.9111 -35.9111 -35.8710 -35.8710 -35.8222 -35.8161 -35.7772
   -35.7596 -35.7596 -35.7243 -35.7159 -35.7151 -35.7112 -35.7112 -35.6831
   -35.6572 -35.6572 -35.6450 -35.6450 -35.6322 -35.6306 -35.6306 -35.6271
   -35.6267 -35.6061 -35.6061 -35.5919 -35.5919 -35.5918 -35.5797 -35.5797
   -35.5778 -35.5635 -35.5403 -35.5403 -35.5306 -35.4380 -35.4301 -35.4301
   -35.3564 -35.3564 -35.3314 -35.3314 -35.3217 -35.3217 -35.3062 -35.1883
   -18.8653 -18.7226 -18.5948 -18.4823 -18.4823 -18.4718 -18.4608 -18.4517
   -18.3961 -18.3961 -18.3224 -18.3224 -18.3004 -18.3004 -18.2737 -18.2737
   -18.2665 -18.2665 -11.7530 -11.7530 -11.5887 -11.5887 -11.5863 -11.5421
   -11.5379 -11.5379 -11.3983 -11.1335 -11.1335 -11.1205 -11.1205 -11.1035
   -10.6585 -10.5150 -10.5150 -10.1158 -10.0353  -9.6546  -9.6546  -9.3118
    -9.1666  -9.0266  -9.0266  -8.9027  -8.8031  -8.7533  -8.7502  -8.7091
    -8.6236  -8.6219  -8.6219  -8.5913  -8.5913  -8.5473  -8.5473  -8.3225
    -8.3225  -8.2883  -8.2680  -8.2680  -8.2530  -8.2332  -8.2332  -8.2052
    -8.1312  -8.0981  -8.0981  -8.0365  -8.0248  -8.0248  -7.9278  -7.9278
    -7.8048  -7.8048  -7.7871  -7.7855  -7.5895  -7.5895  -7.5226  -7.5226
    -7.4968  -7.4815  -7.4815  -7.4384  -7.4384  -7.2872  -7.2872  -7.2555
    -7.1435  -7.0497  -7.0497  -7.0428  -7.0428  -6.4570  -6.4186  -6.4186
    -5.9315  -5.9315  -5.6552  -5.2520  -5.2520  -5.2159  -5.2159  -4.9668
    -4.9668  -4.7355  -4.7355  -4.5640  -4.5640  -4.4610  -4.4548  -4.2879
    -4.2879  -4.1228  -3.9083  -3.8674  -3.8421  -3.8421  -3.7038  -3.7038
    -3.0059  -2.9686  -2.7486  -2.7486  -2.6411  -2.6411  -2.5935  -2.5016
    -2.5016  -2.3055  -2.2252  -2.1296  -2.1058  -2.1058  -1.9924  -1.9924
    -1.8272  -1.7348  -1.7348  -1.7133  -1.7133  -1.5447  -1.5033  -1.4538
    -1.2750  -1.2750  -1.1532  -0.9760  -0.9341  -0.9341  -0.8649  -0.8648
    -0.8057  -0.8055  -0.7954

          k = 0.2000 0.2802 0.0000 (691975 PWs)   bands (ev):

   -60.6943 -60.6787 -60.6743 -60.6636 -60.6605 -60.6530 -60.6511 -60.6480
   -60.6422 -60.6323 -60.6297 -60.6291 -60.6265 -60.6216 -60.6171 -60.6108
   -60.6063 -60.5951 -36.0428 -36.0101 -36.0051 -35.9727 -35.9681 -35.9318
   -35.9099 -35.9098 -35.9026 -35.8851 -35.8480 -35.8253 -35.8171 -35.7998
   -35.7807 -35.7700 -35.7455 -35.7127 -35.6967 -35.6805 -35.6765 -35.6749
   -35.6698 -35.6589 -35.6432 -35.6395 -35.6389 -35.6313 -35.6224 -35.6149
   -35.6110 -35.6084 -35.6073 -35.6064 -35.5986 -35.5921 -35.5912 -35.5872
   -35.5805 -35.5706 -35.5668 -35.5401 -35.4882 -35.4719 -35.4231 -35.4221
   -35.3942 -35.3523 -35.3409 -35.3329 -35.3020 -35.3017 -35.2983 -35.1953
   -18.8432 -18.7036 -18.5854 -18.5786 -18.4827 -18.4587 -18.4497 -18.4399
   -18.3942 -18.3928 -18.3342 -18.3239 -18.3158 -18.3139 -18.2848 -18.2661
   -18.2501 -18.2325 -11.7753 -11.7070 -11.6425 -11.6039 -11.5890 -11.5561
   -11.5501 -11.4184 -11.3852 -11.2692 -11.2114 -11.1279 -11.0172 -10.9930
   -10.6833 -10.6477 -10.3883 -10.1347 -10.0189  -9.7980  -9.4625  -9.2984
    -9.1407  -9.1206  -8.8757  -8.8506  -8.8227  -8.7534  -8.7418  -8.7384
    -8.7059  -8.6977  -8.6568  -8.6249  -8.6063  -8.5240  -8.4810  -8.3646
    -8.3582  -8.2869  -8.2867  -8.2723  -8.2157  -8.1984  -8.1853  -8.1656
    -8.1532  -8.1348  -8.0665  -8.0419  -8.0122  -8.0111  -8.0110  -7.9341
    -7.8472  -7.8270  -7.8052  -7.7976  -7.7874  -7.7858  -7.6881  -7.4981
    -7.4946  -7.4872  -7.2920  -7.2890  -7.2816  -7.2625  -7.2466  -7.1746
    -7.1604  -7.1299  -7.0988  -6.9550  -6.8394  -6.5400  -6.4915  -6.2385
    -5.9915  -5.8101  -5.7466  -5.7360  -5.3720  -5.2165  -5.2117  -5.0845
    -4.6502  -4.6385  -4.5802  -4.5681  -4.5659  -4.4193  -4.3648  -4.3398
    -4.0593  -3.9870  -3.9826  -3.9787  -3.8547  -3.7866  -3.5947  -3.5007
    -3.1952  -3.1120  -3.0530  -2.6265  -2.5887  -2.5327  -2.5241  -2.4717
    -2.2921  -2.2542  -2.1933  -2.1689  -2.0772  -1.9969  -1.9810  -1.9750
    -1.9731  -1.8391  -1.7617  -1.7342  -1.7023  -1.6361  -1.5891  -1.5560
    -1.3957  -1.2103  -1.2067  -1.1765  -1.1143  -1.0864  -1.0106  -0.9751
    -0.9619  -0.9573  -0.8275

          k = 0.2000 0.5605 0.0000 (691861 PWs)   bands (ev):

   -60.6899 -60.6831 -60.6754 -60.6702 -60.6584 -60.6552 -60.6418 -60.6401
   -60.6382 -60.6348 -60.6328 -60.6312 -60.6292 -60.6291 -60.6141 -60.6120
   -60.6010 -60.5972 -36.0518 -36.0391 -36.0033 -35.9769 -35.9359 -35.9106
   -35.8970 -35.8946 -35.8933 -35.8928 -35.8633 -35.8463 -35.8286 -35.8127
   -35.8099 -35.7346 -35.7256 -35.7039 -35.7022 -35.6909 -35.6738 -35.6709
   -35.6586 -35.6577 -35.6486 -35.6404 -35.6362 -35.6214 -35.6186 -35.6155
   -35.6104 -35.6103 -35.6079 -35.6076 -35.6052 -35.5881 -35.5842 -35.5823
   -35.5699 -35.5680 -35.5633 -35.5557 -35.5187 -35.4953 -35.4379 -35.3918
   -35.3904 -35.3653 -35.3611 -35.3445 -35.2948 -35.2931 -35.2510 -35.2164
   -18.7812 -18.6903 -18.6502 -18.5721 -18.5331 -18.4672 -18.4227 -18.4193
   -18.4074 -18.3773 -18.3715 -18.3620 -18.3300 -18.2935 -18.2737 -18.2491
   -18.2308 -18.2196 -11.7656 -11.7208 -11.6495 -11.6034 -11.5961 -11.5948
   -11.4835 -11.3885 -11.3474 -11.2991 -11.2882 -11.1970 -10.9029 -10.8616
   -10.7788 -10.7540 -10.2768 -10.1899  -9.9725  -9.9001  -9.2652  -9.2278
    -9.2165  -8.9897  -8.9729  -8.8427  -8.8096  -8.8012  -8.7456  -8.7391
    -8.7213  -8.6998  -8.6984  -8.6247  -8.5196  -8.5053  -8.5041  -8.4613
    -8.4226  -8.3421  -8.3386  -8.3045  -8.2803  -8.2247  -8.1922  -8.1282
    -8.0905  -8.0644  -8.0589  -8.0281  -8.0191  -8.0025  -7.9376  -7.9332
    -7.9070  -7.9014  -7.8701  -7.8694  -7.8600  -7.7848  -7.7841  -7.7023
    -7.5030  -7.5010  -7.2222  -7.2159  -7.1966  -7.1845  -7.1574  -7.1540
    -7.1127  -7.1053  -6.9487  -6.9017  -6.5865  -6.5714  -6.5574  -6.2056
    -6.0069  -5.9768  -5.8806  -5.7197  -5.6322  -5.3962  -5.1014  -5.0689
    -4.9067  -4.8560  -4.4577  -4.3629  -4.2517  -4.1673  -4.1220  -4.0520
    -4.0495  -4.0004  -3.9938  -3.9024  -3.6531  -3.6061  -3.5624  -3.5075
    -3.4686  -3.3549  -3.1680  -2.6563  -2.4959  -2.4767  -2.3958  -2.3360
    -2.3301  -2.2990  -2.1519  -2.1154  -2.0805  -2.0211  -1.9784  -1.9545
    -1.9511  -1.9353  -1.8789  -1.7207  -1.7033  -1.6588  -1.5962  -1.5725
    -1.4824  -1.4250  -1.3724  -1.3030  -1.2676  -1.2533  -1.2484  -1.2328
    -1.2314  -1.0680  -0.8936

          k = 0.4000 0.0000 0.0000 (691987 PWs)   bands (ev):

   -60.6924 -60.6870 -60.6623 -60.6623 -60.6596 -60.6596 -60.6507 -60.6413
   -60.6413 -60.6398 -60.6359 -60.6359 -60.6176 -60.6176 -60.6149 -60.6149
   -60.6032 -60.5977 -36.0038 -36.0038 -35.9829 -35.9829 -35.9752 -35.9752
   -35.9438 -35.9438 -35.8946 -35.8607 -35.8272 -35.8272 -35.8128 -35.7976
   -35.7879 -35.7878 -35.7095 -35.6987 -35.6940 -35.6766 -35.6629 -35.6616
   -35.6616 -35.6542 -35.6541 -35.6506 -35.6506 -35.6489 -35.6225 -35.6225
   -35.6142 -35.6142 -35.6014 -35.6014 -35.5864 -35.5864 -35.5822 -35.5822
   -35.5789 -35.5749 -35.5694 -35.5565 -35.5405 -35.5087 -35.3865 -35.3865
   -35.3533 -35.3533 -35.3441 -35.3441 -35.3306 -35.3306 -35.2533 -35.2132
   -18.8330 -18.7834 -18.5409 -18.4994 -18.4626 -18.4626 -18.4570 -18.4530
   -18.4326 -18.4326 -18.2940 -18.2940 -18.2934 -18.2934 -18.2836 -18.2836
   -18.2751 -18.2751 -11.7444 -11.7444 -11.6713 -11.6713 -11.5407 -11.4688
   -11.4423 -11.4369 -11.4369 -11.2932 -11.2671 -11.2671 -10.8989 -10.8989
   -10.6793 -10.6793 -10.4392 -10.2498  -9.8551  -9.6026  -9.4771  -9.4771
    -9.2548  -9.2548  -9.0955  -9.0030  -8.7995  -8.7852  -8.6352  -8.6186
    -8.5267  -8.5001  -8.5001  -8.4624  -8.4624  -8.4624  -8.4624  -8.4235
    -8.4235  -8.4130  -8.3432  -8.3432  -8.3159  -8.3159  -8.1716  -8.1660
    -8.1464  -8.0272  -8.0272  -8.0100  -8.0100  -8.0004  -8.0004  -7.9779
    -7.9271  -7.9040  -7.9040  -7.8408  -7.5367  -7.5367  -7.5197  -7.5197
    -7.4302  -7.4302  -7.3911  -7.3651  -7.3651  -7.3090  -7.2886  -7.2886
    -7.1507  -7.1507  -6.9973  -6.8728  -6.8728  -6.7648  -6.6607  -6.6607
    -5.7187  -5.7187  -5.5057  -5.5057  -5.1790  -5.1564  -5.1564  -5.0698
    -5.0698  -4.6647  -4.6201  -4.6201  -4.5885  -4.5859  -4.4812  -4.4812
    -4.1914  -4.1914  -3.9146  -3.9146  -3.5721  -3.4544  -3.3527  -3.3527
    -3.2559  -3.0133  -3.0133  -3.0052  -2.8508  -2.8508  -2.7574  -2.7574
    -2.4592  -2.1879  -2.1053  -2.0740  -2.0740  -2.0573  -2.0573  -1.9681
    -1.9384  -1.9311  -1.7236  -1.5459  -1.5459  -1.4011  -1.3943  -1.3943
    -1.3374  -1.3245  -1.3245  -1.2635  -1.0113  -1.0113  -0.8259  -0.8259
    -0.7398  -0.7397  -0.6775

          k = 0.4000 0.2802 0.0000 (691877 PWs)   bands (ev):

   -60.6910 -60.6858 -60.6720 -60.6684 -60.6519 -60.6502 -60.6502 -60.6440
   -60.6395 -60.6389 -60.6368 -60.6356 -60.6243 -60.6226 -60.6122 -60.6086
   -60.6037 -60.5984 -36.0418 -36.0289 -35.9792 -35.9582 -35.9494 -35.9431
   -35.9336 -35.9212 -35.8964 -35.8886 -35.8753 -35.8478 -35.8087 -35.7815
   -35.7575 -35.7436 -35.7215 -35.7168 -35.7066 -35.7061 -35.6962 -35.6712
   -35.6676 -35.6539 -35.6537 -35.6374 -35.6348 -35.6337 -35.6285 -35.6174
   -35.6174 -35.6123 -35.5983 -35.5953 -35.5928 -35.5874 -35.5797 -35.5741
   -35.5741 -35.5644 -35.5526 -35.5500 -35.5437 -35.4879 -35.4197 -35.4014
   -35.3756 -35.3753 -35.3616 -35.3409 -35.2958 -35.2957 -35.2541 -35.2179
   -18.8117 -18.7632 -18.5620 -18.5263 -18.5259 -18.4856 -18.4457 -18.4416
   -18.3780 -18.3566 -18.3534 -18.3306 -18.3284 -18.3208 -18.2762 -18.2638
   -18.2457 -18.2344 -11.7970 -11.7519 -11.6700 -11.5720 -11.5375 -11.4817
   -11.4608 -11.4600 -11.3711 -11.3383 -11.3153 -11.1789 -11.0395 -10.8179
   -10.7586 -10.5448 -10.4622 -10.2706  -9.8383  -9.6175  -9.5868  -9.3854
    -9.2924  -9.0837  -9.0475  -8.9526  -8.8143  -8.7933  -8.6615  -8.6093
    -8.5866  -8.5838  -8.5804  -8.5247  -8.5198  -8.5053  -8.4658  -8.4138
    -8.3967  -8.3774  -8.3481  -8.3201  -8.3162  -8.2506  -8.1450  -8.1144
    -8.0848  -8.0830  -8.0517  -8.0400  -7.9829  -7.9699  -7.9557  -7.9383
    -7.9268  -7.9187  -7.8943  -7.8717  -7.8572  -7.8350  -7.6220  -7.5537
    -7.3894  -7.3478  -7.3033  -7.2448  -7.2418  -7.2348  -7.2197  -7.1826
    -7.1814  -7.0573  -7.0175  -7.0144  -6.7976  -6.7904  -6.6673  -6.4629
    -5.7404  -5.6452  -5.6292  -5.5136  -5.4947  -5.4423  -5.3258  -4.9565
    -4.9510  -4.7915  -4.6252  -4.5890  -4.4189  -4.3005  -4.3000  -4.2239
    -4.2127  -4.0362  -3.9624  -3.6851  -3.6422  -3.6371  -3.3813  -3.3521
    -3.3080  -3.1358  -2.9386  -2.8484  -2.7864  -2.7796  -2.7688  -2.7250
    -2.5991  -2.4503  -2.1147  -2.1031  -2.0751  -2.0351  -2.0234  -1.9773
    -1.8934  -1.7844  -1.6228  -1.5819  -1.5364  -1.4940  -1.4340  -1.4142
    -1.3873  -1.3718  -1.3549  -1.3021  -1.2807  -1.1938  -1.1786  -0.9279
    -0.9049  -0.8313  -0.6365

          k = 0.4000 0.5605 0.0000 (691841 PWs)   bands (ev):

   -60.6869 -60.6820 -60.6804 -60.6761 -60.6487 -60.6466 -60.6415 -60.6409
   -60.6388 -60.6378 -60.6371 -60.6359 -60.6321 -60.6316 -60.6082 -60.6053
   -60.6037 -60.6003 -36.0595 -36.0552 -35.9667 -35.9362 -35.9325 -35.9276
   -35.9182 -35.9041 -35.9032 -35.8955 -35.8838 -35.8495 -35.8128 -35.7928
   -35.7747 -35.7617 -35.7480 -35.7064 -35.6985 -35.6891 -35.6873 -35.6863
   -35.6777 -35.6564 -35.6423 -35.6351 -35.6262 -35.6261 -35.6213 -35.6208
   -35.6199 -35.6138 -35.6121 -35.6065 -35.6057 -35.6024 -35.5749 -35.5710
   -35.5678 -35.5619 -35.5318 -35.5070 -35.4847 -35.4650 -35.4605 -35.4471
   -35.4276 -35.4075 -35.3454 -35.3384 -35.2719 -35.2589 -35.2583 -35.2325
   -18.7516 -18.7061 -18.6635 -18.6224 -18.4841 -18.4469 -18.4238 -18.4150
   -18.4101 -18.3915 -18.3725 -18.3665 -18.3168 -18.2971 -18.2829 -18.2672
   -18.2182 -18.2144 -11.8179 -11.8027 -11.5874 -11.5278 -11.5127 -11.5103
   -11.4684 -11.4346 -11.3938 -11.3775 -11.2817 -11.1697 -11.0731 -10.9514
   -10.6309 -10.5286 -10.4252 -10.3309  -9.7914  -9.7190  -9.5436  -9.4783
    -9.0702  -8.9098  -8.8809  -8.8312  -8.8225  -8.8066  -8.7838  -8.7754
    -8.7151  -8.7065  -8.6659  -8.5847  -8.5644  -8.5551  -8.4459  -8.4077
    -8.4057  -8.3974  -8.3411  -8.3125  -8.1912  -8.1811  -8.1512  -8.0985
    -8.0889  -8.0366  -8.0265  -8.0256  -7.9760  -7.9730  -7.9717  -7.9668
    -7.9522  -7.9344  -7.9343  -7.9187  -7.9038  -7.8975  -7.8048  -7.7468
    -7.3837  -7.3723  -7.2872  -7.2609  -7.1154  -7.0955  -7.0718  -7.0656
    -7.0641  -7.0579  -7.0417  -6.9990  -6.8560  -6.8398  -6.4053  -6.2111
    -6.0665  -5.8965  -5.6841  -5.5399  -5.4752  -5.4034  -5.3225  -5.2231
    -5.2180  -5.0713  -4.1793  -4.1416  -4.1203  -4.0944  -4.0894  -4.0885
    -4.0868  -3.9092  -3.8324  -3.8299  -3.7609  -3.6410  -3.5906  -3.3377
    -3.3346  -3.2142  -3.0882  -2.9257  -2.7861  -2.6836  -2.5697  -2.5597
    -2.4889  -2.2811  -2.2363  -2.1342  -2.1003  -2.0823  -2.0773  -2.0608
    -2.0348  -2.0224  -2.0013  -1.8737  -1.5104  -1.4864  -1.4690  -1.4559
    -1.4254  -1.3720  -1.3448  -1.3288  -1.2508  -1.1540  -1.1524  -1.0063
    -0.8603  -0.7854  -0.7830

     the Fermi energy is    -3.7214 ev

!    total energy              =   -2464.32544787 Ry
     estimated scf accuracy    <          3.6E-09 Ry
     smearing contrib. (-TS)   =      -0.01364846 Ry
     internal energy E=F+TS    =   -2464.31179941 Ry

     The total energy is F=E-TS. E is the sum of the following terms:
     one-electron contribution =  -39877.34096672 Ry
     hartree contribution      =   19875.85707937 Ry
     xc contribution           =    -370.40351136 Ry
     ewald contribution        =   17907.57559930 Ry

     convergence has been achieved in  40 iterations

     Forces acting on atoms (cartesian axes, Ry/au):

     atom    1 type  1   force =     0.00000000   -0.00000349   -0.00173246
     atom    2 type  1   force =     0.00000000    0.00002468   -0.00174664
     atom    3 type  1   force =     0.00000000   -0.00003168   -0.00172588
     atom    4 type  1   force =     0.00003978   -0.00008988    0.00186199
     atom    5 type  1   force =     0.00001000   -0.00006501    0.00185518
     atom    6 type  1   force =     0.00004041   -0.00005294    0.00184392
     atom    7 type  1   force =    -0.00001098    0.00001476   -0.00175038
     atom    8 type  1   force =     0.00001447   -0.00000624   -0.00175620
     atom    9 type  1   force =    -0.00003004   -0.00002010   -0.00174859
     atom   10 type  1   force =     0.00000000   -0.00004802    0.00184501
     atom   11 type  1   force =     0.00000000   -0.00011188    0.00184213
     atom   12 type  1   force =     0.00000000   -0.00004899    0.00184561
     atom   13 type  1   force =     0.00001098    0.00001476   -0.00175038
     atom   14 type  1   force =    -0.00001447   -0.00000624   -0.00175620
     atom   15 type  1   force =     0.00003004   -0.00002010   -0.00174859
     atom   16 type  1   force =    -0.00003978   -0.00008988    0.00186199
     atom   17 type  1   force =    -0.00001000   -0.00006501    0.00185518
     atom   18 type  1   force =    -0.00004041   -0.00005294    0.00184392
     atom   19 type  2   force =    -0.00796705    0.00002253   -0.00245183
     atom   20 type  2   force =    -0.00796135    0.00000400   -0.00244809
     atom   21 type  2   force =    -0.00793273    0.00001843   -0.00243514
     atom   22 type  2   force =     0.00789047    0.00002832    0.00239620
     atom   23 type  2   force =     0.00788072    0.00001660    0.00239841
     atom   24 type  2   force =     0.00791204    0.00001998    0.00238341
     atom   25 type  2   force =    -0.00791342    0.00002006    0.00238441
     atom   26 type  2   force =    -0.00788008    0.00001666    0.00239837
     atom   27 type  2   force =    -0.00788675    0.00002825    0.00239502
     atom   28 type  2   force =     0.00796716    0.00002473   -0.00245100
     atom   29 type  2   force =    -0.00797020    0.00002441   -0.00245212
     atom   30 type  2   force =     0.00795897    0.00000288   -0.00244718
     atom   31 type  2   force =    -0.00796087    0.00000314   -0.00244766
     atom   32 type  2   force =     0.00793415    0.00001678   -0.00243491
     atom   33 type  2   force =    -0.00793323    0.00001693   -0.00243452
     atom   34 type  2   force =     0.00788770    0.00003007    0.00239536
     atom   35 type  2   force =    -0.00788770    0.00003007    0.00239536
     atom   36 type  2   force =     0.00788046    0.00001624    0.00239750
     atom   37 type  2   force =    -0.00788046    0.00001624    0.00239750
     atom   38 type  2   force =     0.00791164    0.00001912    0.00238395
     atom   39 type  2   force =    -0.00791164    0.00001912    0.00238395
     atom   40 type  2   force =     0.00797020    0.00002441   -0.00245212
     atom   41 type  2   force =    -0.00796716    0.00002473   -0.00245100
     atom   42 type  2   force =     0.00796087    0.00000314   -0.00244766
     atom   43 type  2   force =    -0.00795897    0.00000288   -0.00244718
     atom   44 type  2   force =     0.00793323    0.00001693   -0.00243452
     atom   45 type  2   force =    -0.00793415    0.00001678   -0.00243491
     atom   46 type  2   force =     0.00788675    0.00002825    0.00239502
     atom   47 type  2   force =    -0.00789047    0.00002832    0.00239620
     atom   48 type  2   force =     0.00788008    0.00001666    0.00239837
     atom   49 type  2   force =     0.00793273    0.00001843   -0.00243514
     atom   50 type  2   force =     0.00796135    0.00000400   -0.00244809
     atom   51 type  2   force =     0.00796705    0.00002253   -0.00245183
     atom   52 type  2   force =     0.00791342    0.00002006    0.00238441
     atom   53 type  2   force =    -0.00791204    0.00001998    0.00238341
     atom   54 type  2   force =    -0.00788072    0.00001660    0.00239841

     Total force =     0.050292     Total SCF correction =     0.000104

     BFGS Geometry Optimization
     Energy error            =      0.0E+00 Ry
     Gradient error          =      8.0E-03 Ry/Bohr

     number of scf cycles    =   1
     number of bfgs steps    =   0

     energy             new  =   -2464.3254478698 Ry

     new trust radius        =       0.0083389219 bohr
     new conv_thr            =       0.0000000100 Ry


ATOMIC_POSITIONS (angstrom)
Nb            0.0000000000        1.7586415973        1.2416343124
Nb            0.0000000000        5.2986407857        1.2416268090
Nb            0.0000000000        8.8385952412        1.2416377934
Nb            2.4800100404       10.6086564866        1.0730629880
Nb            2.4799942801        7.0686853628        1.0730593795
Nb            2.4800103729        3.5287074692        1.0730534220
Nb            4.9599721645        1.7586512549        1.2416248284
Nb            4.9599856346        5.2986244203        1.2416217504
Nb            4.9599620811        8.8386013659        1.2416257758
Nb            7.4399669640       10.6086786381        1.0730539992
Nb            7.4399669640        7.0686605641        1.0730524744
Nb            7.4399669640        3.5287095593        1.0730543204
Nb            9.9199617635        1.7586512549        1.2416248284
Nb            9.9199482934        5.2986244203        1.2416217504
Nb            9.9199718469        8.8386013659        1.2416257758
Nb           12.3999238876       10.6086564866        1.0730629880
Nb           12.3999396479        7.0686853628        1.0730593795
Nb           12.3999235551        3.5287074692        1.0730534220
C             0.6815123005       10.6085929299        0.0273776608
C             0.6815153183        7.0685988446        0.0273796377
C             0.6815304647        3.5286222010        0.0273864920
C             1.7984556711        1.7586778558        2.2872631118
C             1.7984505075        5.2986559358        2.2872642806
C             1.7984670806        8.8386420048        2.2872563403
C             3.1615101624        8.8386420468        2.2872568696
C             3.1615278078        5.2986559712        2.2872642602
C             3.1615242744        1.7586778221        2.2872624862
C             4.2784657331       10.6085940954        0.0273781010
C             5.6414886100       10.6085939254        0.0273775072
C             4.2784613991        7.0685982509        0.0273801189
C             5.6414935488        7.0685983901        0.0273798666
C             4.2784482645        3.5286213251        0.0273866128
C             5.6415081739        3.5286214065        0.0273868190
C             6.7584321781        1.7586787848        2.2872626663
C             8.1215017499        1.7586787848        2.2872626663
C             6.7584283466        5.2986557473        2.2872637967
C             8.1215055814        5.2986557473        2.2872637967
C             6.7584448498        8.8386415528        2.2872566252
C             8.1214890782        8.8386415528        2.2872566252
C             9.2384453180       10.6085939254        0.0273775072
C            10.6014681949       10.6085940954        0.0273781010
C             9.2384403792        7.0685983901        0.0273798666
C            10.6014725289        7.0685982509        0.0273801189
C             9.2384257541        3.5286214065        0.0273868190
C            10.6014856635        3.5286213251        0.0273866128
C            11.7184096536        1.7586778221        2.2872624862
C            13.0814782569        1.7586778558        2.2872631118
C            11.7184061202        5.2986559712        2.2872642602
C            14.1984034633        3.5286222010        0.0273864920
C            14.1984186097        7.0685988446        0.0273796377
C            14.1984216275       10.6085929299        0.0273776608
C            11.7184237656        8.8386420468        2.2872568696
C            13.0814668474        8.8386420048        2.2872563403
C            13.0814834205        5.2986559358        2.2872642806



     Writing output data file /home/fernando/serse/temp/NB.save/
     NEW-OLD atomic charge density approx. for the potential

     negative rho (up, down):  4.733E-05 0.000E+00

     total cpu time spent up to now is    39847.7 secs

     Self-consistent Calculation

     iteration #  1     ecut=    90.00 Ry     beta= 0.70
     Davidson diagonalization with overlap
     ethr =  1.00E-06,  avg # of iterations =  6.0

     negative rho (up, down):  6.892E-06 0.000E+00

     total cpu time spent up to now is    41236.5 secs

     total energy              =   -2464.32339472 Ry
     estimated scf accuracy    <       0.00645568 Ry

     iteration #  2     ecut=    90.00 Ry     beta= 0.70
     Davidson diagonalization with overlap
     ethr =  1.71E-06,  avg # of iterations =  5.7

     negative rho (up, down):  2.589E-06 0.000E+00

     total cpu time spent up to now is    42260.7 secs

     total energy              =   -2464.32424328 Ry
     estimated scf accuracy    <       0.00699069 Ry

     iteration #  3     ecut=    90.00 Ry     beta= 0.70
     Davidson diagonalization with overlap
     ethr =  1.71E-06,  avg # of iterations =  5.1

     negative rho (up, down):  1.716E-06 0.000E+00

     total cpu time spent up to now is    43088.4 secs

     total energy              =   -2464.32427297 Ry
     estimated scf accuracy    <       0.01456730 Ry

     iteration #  4     ecut=    90.00 Ry     beta= 0.70
     Davidson diagonalization with overlap
     ethr =  1.71E-06,  avg # of iterations =  3.4

     negative rho (up, down):  5.222E-07 0.000E+00

     total cpu time spent up to now is    43781.2 secs

     total energy              =   -2464.32514403 Ry
     estimated scf accuracy    <       0.01274421 Ry

     iteration #  5     ecut=    90.00 Ry     beta= 0.70
     Davidson diagonalization with overlap
     ethr =  1.71E-06,  avg # of iterations =  2.0

     negative rho (up, down):  1.241E-07 0.000E+00

     total cpu time spent up to now is    44459.8 secs

     total energy              =   -2464.32584175 Ry
     estimated scf accuracy    <       0.00144674 Ry

     iteration #  6     ecut=    90.00 Ry     beta= 0.70
     Davidson diagonalization with overlap
     ethr =  3.83E-07,  avg # of iterations =  3.3

     negative rho (up, down):  3.122E-08 0.000E+00

     total cpu time spent up to now is    45155.0 secs

     total energy              =   -2464.32598924 Ry
     estimated scf accuracy    <       0.00025226 Ry

     iteration #  7     ecut=    90.00 Ry     beta= 0.70
     Davidson diagonalization with overlap
     ethr =  6.67E-08,  avg # of iterations =  5.3

     total cpu time spent up to now is    45911.1 secs

     total energy              =   -2464.32603233 Ry
     estimated scf accuracy    <       0.00004715 Ry

     iteration #  8     ecut=    90.00 Ry     beta= 0.70
     Davidson diagonalization with overlap
     ethr =  1.25E-08,  avg # of iterations =  5.3

     total cpu time spent up to now is    46722.3 secs

     total energy              =   -2464.32603575 Ry
     estimated scf accuracy    <       0.00003510 Ry

     iteration #  9     ecut=    90.00 Ry     beta= 0.70
     Davidson diagonalization with overlap
     ethr =  9.28E-09,  avg # of iterations =  2.2

     total cpu time spent up to now is    47422.3 secs

     total energy              =   -2464.32604077 Ry
     estimated scf accuracy    <       0.00000566 Ry

     iteration # 10     ecut=    90.00 Ry     beta= 0.70
     Davidson diagonalization with overlap
     ethr =  1.50E-09,  avg # of iterations =  5.6

     total cpu time spent up to now is    48194.3 secs

     total energy              =   -2464.32604127 Ry
     estimated scf accuracy    <       0.00000143 Ry

     iteration # 11     ecut=    90.00 Ry     beta= 0.70
     Davidson diagonalization with overlap
     ethr =  3.77E-10,  avg # of iterations =  5.9

     total cpu time spent up to now is    49036.5 secs

     total energy              =   -2464.32604150 Ry
     estimated scf accuracy    <       0.00000073 Ry

     iteration # 12     ecut=    90.00 Ry     beta= 0.70
     Davidson diagonalization with overlap
     ethr =  1.94E-10,  avg # of iterations =  3.2

     total cpu time spent up to now is    49802.1 secs

     total energy              =   -2464.32604158 Ry
     estimated scf accuracy    <       0.00000026 Ry

     iteration # 13     ecut=    90.00 Ry     beta= 0.70
     Davidson diagonalization with overlap
     ethr =  6.88E-11,  avg # of iterations =  5.3

     total cpu time spent up to now is    50638.7 secs

     total energy              =   -2464.32604157 Ry
     estimated scf accuracy    <       0.00000063 Ry

     iteration # 14     ecut=    90.00 Ry     beta= 0.70
     Davidson diagonalization with overlap
     ethr =  6.88E-11,  avg # of iterations =  4.7

     total cpu time spent up to now is    51408.9 secs

     total energy              =   -2464.32604157 Ry
     estimated scf accuracy    <       0.00000137 Ry

     iteration # 15     ecut=    90.00 Ry     beta= 0.70
     Davidson diagonalization with overlap
     ethr =  6.88E-11,  avg # of iterations =  2.8

     total cpu time spent up to now is    52091.3 secs

     total energy              =   -2464.32604163 Ry
     estimated scf accuracy    <       0.00000005 Ry

     iteration # 16     ecut=    90.00 Ry     beta= 0.70
     Davidson diagonalization with overlap
     ethr =  1.36E-11,  avg # of iterations =  5.7

     total cpu time spent up to now is    52906.3 secs

     total energy              =   -2464.32604164 Ry
     estimated scf accuracy    <       0.00000002 Ry

     iteration # 17     ecut=    90.00 Ry     beta= 0.70
     Davidson diagonalization with overlap
     ethr =  6.05E-12,  avg # of iterations =  3.0

     total cpu time spent up to now is    53625.8 secs

     End of self-consistent calculation

          k = 0.0000 0.0000 0.0000 (691861 PWs)   bands (ev):

   -60.6947 -60.6691 -60.6691 -60.6625 -60.6625 -60.6495 -60.6495 -60.6495
   -60.6495 -60.6236 -60.6236 -60.6236 -60.6236 -60.6172 -60.6172 -60.6106
   -60.6106 -60.5912 -36.0089 -36.0088 -36.0088 -36.0088 -35.9161 -35.9112
   -35.9112 -35.9112 -35.9112 -35.8930 -35.8930 -35.8233 -35.7590 -35.7590
   -35.7504 -35.7504 -35.7477 -35.7477 -35.7272 -35.7272 -35.7157 -35.6581
   -35.6581 -35.6557 -35.6556 -35.6358 -35.6358 -35.6358 -35.6358 -35.6054
   -35.6053 -35.6015 -35.6015 -35.5962 -35.5962 -35.5962 -35.5962 -35.5765
   -35.5765 -35.5594 -35.5254 -35.4776 -35.4776 -35.4776 -35.4776 -35.3633
   -35.3633 -35.3557 -35.3557 -35.3165 -35.3164 -35.3164 -35.3164 -35.1742
   -18.9222 -18.7082 -18.7082 -18.5389 -18.5389 -18.5168 -18.5120 -18.5120
   -18.4111 -18.4111 -18.4111 -18.4111 -18.3572 -18.3572 -18.3224 -18.3224
   -18.3224 -18.3224 -11.6734 -11.6734 -11.6734 -11.6734 -11.5629 -11.5629
   -11.3410 -11.3277 -11.3277 -11.3277 -11.3277 -11.0342 -11.0342 -10.8593
   -10.8593 -10.4300 -10.4299 -10.1196 -10.0432  -9.7362  -9.7362  -9.2142
    -9.0324  -9.0324  -8.8266  -8.8243  -8.8242  -8.8219  -8.8218  -8.8218
    -8.8218  -8.7210  -8.7209  -8.6556  -8.6556  -8.5841  -8.5841  -8.2531
    -8.2531  -8.2531  -8.2531  -8.2398  -8.2398  -8.2254  -8.2254  -8.2254
    -8.2254  -8.1879  -8.1879  -8.1317  -8.0529  -8.0529  -7.8310  -7.8310
    -7.8310  -7.8309  -7.8013  -7.6241  -7.6240  -7.5671  -7.5671  -7.5671
    -7.5671  -7.5224  -7.5224  -7.5224  -7.5224  -7.2349  -7.2232  -7.2232
    -7.1675  -7.1169  -7.1169  -7.0149  -7.0149  -6.1484  -6.1484  -6.1484
    -6.1484  -6.0630  -6.0629  -5.2032  -5.2032  -4.9256  -4.9256  -4.9256
    -4.9256  -4.8239  -4.8239  -4.8238  -4.8238  -4.1921  -4.1921  -4.1893
    -4.1893  -4.0157  -4.0157  -4.0157  -4.0157  -3.8569  -3.8569  -3.5444
    -3.5444  -2.7541  -2.6647  -2.6647  -2.4045  -2.3439  -2.3391  -2.3391
    -2.3098  -2.3098  -2.2454  -2.2454  -2.2454  -2.2454  -2.0542  -2.0542
    -1.8621  -1.8621  -1.8620  -1.8620  -1.6972  -1.6972  -1.1858  -1.1858
    -1.1138  -1.0643  -1.0410  -1.0111  -1.0111  -0.9487  -0.9180  -0.8885
    -0.8459  -0.8458  -0.8458

          k = 0.0000 0.2802 0.0000 (691857 PWs)   bands (ev):

   -60.6933 -60.6729 -60.6681 -60.6681 -60.6556 -60.6556 -60.6512 -60.6432
   -60.6432 -60.6272 -60.6272 -60.6210 -60.6210 -60.6192 -60.6174 -60.6174
   -60.6036 -60.5920 -36.0289 -36.0289 -35.9727 -35.9727 -35.9691 -35.9691
   -35.9078 -35.8936 -35.8810 -35.8409 -35.8409 -35.8288 -35.8119 -35.8119
   -35.8040 -35.7909 -35.7124 -35.7035 -35.7035 -35.6863 -35.6736 -35.6555
   -35.6516 -35.6516 -35.6473 -35.6473 -35.6371 -35.6343 -35.6343 -35.6247
   -35.6247 -35.6003 -35.6003 -35.5950 -35.5950 -35.5939 -35.5939 -35.5884
   -35.5671 -35.5623 -35.5348 -35.5256 -35.5256 -35.4326 -35.4326 -35.4258
   -35.3535 -35.3535 -35.3325 -35.3325 -35.3115 -35.3115 -35.2939 -35.1821
   -18.9002 -18.6907 -18.6907 -18.6421 -18.5058 -18.4997 -18.4997 -18.4891
   -18.4890 -18.4509 -18.3908 -18.3666 -18.3666 -18.3474 -18.3474 -18.3416
   -18.2940 -18.2940 -11.6647 -11.6647 -11.6576 -11.6576 -11.5716 -11.5716
   -11.4513 -11.4513 -11.3264 -11.1939 -11.1939 -11.1323 -10.9264 -10.8847
   -10.8847 -10.5592 -10.3069 -10.1033 -10.0616  -9.8812  -9.5407  -9.1689
    -9.0211  -9.0211  -8.9162  -8.9161  -8.8472  -8.8021  -8.7717  -8.7717
    -8.7415  -8.7127  -8.7126  -8.6971  -8.6971  -8.6872  -8.4014  -8.3690
    -8.3690  -8.3208  -8.3208  -8.2218  -8.2218  -8.1947  -8.1947  -8.1883
    -8.1883  -8.0947  -8.0946  -8.0666  -8.0660  -8.0660  -8.0471  -8.0315
    -7.8216  -7.8085  -7.8085  -7.7534  -7.7534  -7.6376  -7.6376  -7.6256
    -7.6255  -7.4561  -7.3416  -7.3415  -7.2983  -7.2982  -7.2255  -7.2174
    -7.1833  -7.0988  -7.0242  -6.9218  -6.9189  -6.2435  -6.2435  -6.1133
    -6.1132  -5.9945  -5.9944  -5.7532  -5.2102  -5.2102  -4.8931  -4.8930
    -4.8623  -4.8623  -4.6044  -4.4122  -4.4122  -4.3097  -4.3097  -4.2978
    -4.2978  -4.0965  -4.0965  -3.8487  -3.8054  -3.8054  -3.6229  -3.5530
    -3.5530  -2.9710  -2.9412  -2.4365  -2.4365  -2.3736  -2.3482  -2.3078
    -2.3078  -2.2088  -2.2088  -2.1956  -2.0494  -2.0400  -2.0400  -1.9701
    -1.8666  -1.8666  -1.8513  -1.8512  -1.7088  -1.7088  -1.6067  -1.4585
    -1.4395  -1.3926  -1.1419  -1.1014  -1.1014  -1.0559  -1.0558  -1.0208
    -0.9635  -0.8803  -0.8793

          k = 0.0000 0.5605 0.0000 (691868 PWs)   bands (ev):

   -60.6889 -60.6819 -60.6654 -60.6654 -60.6611 -60.6611 -60.6399 -60.6372
   -60.6372 -60.6317 -60.6317 -60.6290 -60.6192 -60.6192 -60.6180 -60.6180
   -60.5981 -60.5942 -36.0296 -36.0296 -36.0095 -36.0095 -35.9247 -35.9247
   -35.8833 -35.8794 -35.8697 -35.8697 -35.8626 -35.8491 -35.8438 -35.8434
   -35.7649 -35.7649 -35.7033 -35.6922 -35.6921 -35.6899 -35.6729 -35.6728
   -35.6589 -35.6589 -35.6275 -35.6224 -35.6223 -35.6192 -35.6147 -35.6147
   -35.6065 -35.6065 -35.6027 -35.5933 -35.5933 -35.5931 -35.5930 -35.5815
   -35.5791 -35.5752 -35.5752 -35.5595 -35.5513 -35.5014 -35.3923 -35.3922
   -35.3583 -35.3583 -35.3339 -35.3339 -35.3178 -35.3178 -35.2431 -35.2053
   -18.8382 -18.7471 -18.6417 -18.6417 -18.5702 -18.5702 -18.4756 -18.4658
   -18.4658 -18.4337 -18.4180 -18.4180 -18.3867 -18.3503 -18.3050 -18.3050
   -18.2872 -18.2872 -11.6277 -11.6276 -11.6252 -11.6252 -11.5955 -11.5954
   -11.5531 -11.5531 -11.2837 -11.2172 -11.0650 -11.0649 -10.9569 -10.9569
   -10.8106 -10.6876 -10.1990 -10.1150 -10.0568  -9.9840  -9.3007  -9.0404
    -9.0403  -9.0009  -9.0009  -8.9731  -8.9730  -8.8703  -8.8568  -8.8416
    -8.6526  -8.6525  -8.6178  -8.6178  -8.5579  -8.5579  -8.5235  -8.5235
    -8.4258  -8.4258  -8.3781  -8.3780  -8.2291  -8.1924  -8.1924  -8.1899
    -8.1899  -8.1020  -8.0858  -8.0858  -7.9739  -7.9739  -7.9561  -7.9409
    -7.9409  -7.9043  -7.8774  -7.8731  -7.8731  -7.6912  -7.6366  -7.6366
    -7.6300  -7.6300  -7.2413  -7.2181  -7.1990  -7.1736  -7.1735  -7.1610
    -7.1610  -7.1578  -6.8955  -6.8629  -6.6258  -6.2648  -6.2648  -6.2327
    -6.2089  -6.2089  -5.7887  -5.7887  -5.5291  -5.5290  -4.7754  -4.7754
    -4.7281  -4.7281  -4.5679  -4.5679  -4.5306  -4.5306  -4.0100  -4.0100
    -3.9876  -3.9002  -3.9002  -3.7632  -3.7632  -3.6973  -3.6973  -3.6145
    -3.4028  -3.2833  -3.2133  -2.7536  -2.4117  -2.2260  -2.1946  -2.1902
    -2.1902  -2.1459  -2.0346  -1.9644  -1.9644  -1.9488  -1.9488  -1.9454
    -1.8277  -1.8277  -1.8253  -1.8150  -1.8098  -1.8097  -1.7491  -1.7491
    -1.7401  -1.6128  -1.3742  -1.3742  -1.2888  -1.2888  -1.1974  -1.1609
    -1.1238  -1.1237  -1.0527

          k = 0.2000 0.0000 0.0000 (692005 PWs)   bands (ev):

   -60.6936 -60.6778 -60.6619 -60.6619 -60.6592 -60.6539 -60.6539 -60.6446
   -60.6446 -60.6286 -60.6286 -60.6272 -60.6192 -60.6192 -60.6112 -60.6112
   -60.6085 -60.5924 -36.0105 -36.0105 -35.9957 -35.9957 -35.9493 -35.9493
   -35.9090 -35.9090 -35.9090 -35.8685 -35.8685 -35.8201 -35.8098 -35.7752
   -35.7580 -35.7580 -35.7223 -35.7136 -35.7102 -35.7053 -35.7053 -35.6806
   -35.6548 -35.6547 -35.6425 -35.6425 -35.6303 -35.6282 -35.6282 -35.6241
   -35.6233 -35.6037 -35.6037 -35.5895 -35.5895 -35.5895 -35.5774 -35.5774
   -35.5759 -35.5613 -35.5356 -35.5356 -35.5288 -35.4324 -35.4255 -35.4255
   -35.3507 -35.3507 -35.3268 -35.3268 -35.3167 -35.3167 -35.3005 -35.1827
   -18.9113 -18.7719 -18.6472 -18.5323 -18.5323 -18.5268 -18.5155 -18.5069
   -18.4484 -18.4484 -18.3767 -18.3767 -18.3547 -18.3547 -18.3289 -18.3289
   -18.3222 -18.3222 -11.7268 -11.7268 -11.5644 -11.5644 -11.5607 -11.5147
   -11.5112 -11.5112 -11.3723 -11.1087 -11.1087 -11.0965 -11.0965 -11.0756
   -10.6327 -10.4925 -10.4925 -10.0931 -10.0516  -9.6635  -9.6635  -9.3286
    -9.1862  -9.0340  -9.0340  -8.9242  -8.8262  -8.7755  -8.7745  -8.7315
    -8.6454  -8.6351  -8.6351  -8.6044  -8.6044  -8.5684  -8.5684  -8.3426
    -8.3426  -8.3143  -8.2919  -8.2919  -8.2538  -8.2538  -8.2472  -8.2069
    -8.1366  -8.1088  -8.1088  -8.0664  -8.0549  -8.0549  -7.9540  -7.9540
    -7.8200  -7.8082  -7.8082  -7.7849  -7.6058  -7.6058  -7.5371  -7.5371
    -7.4933  -7.4863  -7.4863  -7.4336  -7.4336  -7.2867  -7.2867  -7.2535
    -7.1179  -7.0518  -7.0518  -7.0225  -7.0225  -6.4349  -6.3987  -6.3987
    -5.9125  -5.9125  -5.6345  -5.2332  -5.2332  -5.1833  -5.1833  -4.9444
    -4.9444  -4.7176  -4.7176  -4.5527  -4.5526  -4.4320  -4.4317  -4.2743
    -4.2743  -4.1023  -3.8789  -3.8514  -3.8471  -3.8471  -3.6999  -3.6999
    -2.9847  -2.9396  -2.7658  -2.7658  -2.6310  -2.6310  -2.5930  -2.4991
    -2.4991  -2.3098  -2.2332  -2.1209  -2.1004  -2.1004  -1.9831  -1.9831
    -1.8383  -1.7198  -1.7198  -1.7038  -1.7038  -1.5541  -1.4967  -1.4318
    -1.2545  -1.2545  -1.1600  -0.9763  -0.9385  -0.9385  -0.8550  -0.8550
    -0.8065  -0.8064  -0.7635

          k = 0.2000 0.2802 0.0000 (691975 PWs)   bands (ev):

   -60.6922 -60.6767 -60.6722 -60.6615 -60.6585 -60.6509 -60.6490 -60.6459
   -60.6401 -60.6302 -60.6276 -60.6271 -60.6245 -60.6195 -60.6151 -60.6088
   -60.6043 -60.5931 -36.0397 -36.0072 -36.0021 -35.9693 -35.9648 -35.9292
   -35.9081 -35.9034 -35.9001 -35.8822 -35.8433 -35.8231 -35.8155 -35.7973
   -35.7772 -35.7643 -35.7420 -35.7104 -35.6951 -35.6779 -35.6736 -35.6724
   -35.6673 -35.6564 -35.6374 -35.6371 -35.6363 -35.6289 -35.6200 -35.6126
   -35.6068 -35.6062 -35.6049 -35.6041 -35.5962 -35.5889 -35.5875 -35.5849
   -35.5784 -35.5683 -35.5647 -35.5383 -35.4834 -35.4674 -35.4173 -35.4167
   -35.3897 -35.3474 -35.3362 -35.3283 -35.2966 -35.2965 -35.2926 -35.1897
   -18.8894 -18.7530 -18.6342 -18.6310 -18.5342 -18.5138 -18.5044 -18.4952
   -18.4466 -18.4455 -18.3888 -18.3771 -18.3714 -18.3692 -18.3386 -18.3209
   -18.3051 -18.2881 -11.7491 -11.6806 -11.6161 -11.5794 -11.5635 -11.5288
   -11.5258 -11.3915 -11.3593 -11.2446 -11.1868 -11.1001 -10.9938 -10.9680
   -10.6575 -10.6252 -10.3658 -10.1121 -10.0348  -9.8085  -9.4705  -9.3142
    -9.1485  -9.1402  -8.8838  -8.8722  -8.8451  -8.7746  -8.7640  -8.7491
    -8.7269  -8.7104  -8.6793  -8.6416  -8.6294  -8.5389  -8.5031  -8.3862
    -8.3749  -8.3126  -8.3090  -8.2971  -8.2161  -8.2114  -8.2083  -8.1837
    -8.1613  -8.1557  -8.0725  -8.0716  -8.0413  -8.0387  -8.0186  -7.9605
    -7.8684  -7.8391  -7.8276  -7.8056  -7.7836  -7.7802  -7.6920  -7.4944
    -7.4916  -7.4889  -7.3122  -7.2907  -7.2878  -7.2806  -7.2450  -7.1501
    -7.1347  -7.1308  -7.0973  -6.9588  -6.8192  -6.5195  -6.4694  -6.2184
    -5.9727  -5.7905  -5.7158  -5.7149  -5.3498  -5.1967  -5.1928  -5.0676
    -4.6254  -4.6056  -4.5676  -4.5569  -4.5422  -4.4092  -4.3462  -4.3163
    -4.0421  -3.9794  -3.9590  -3.9541  -3.8630  -3.7705  -3.5964  -3.4930
    -3.1779  -3.0819  -3.0684  -2.6207  -2.5764  -2.5335  -2.5240  -2.4890
    -2.2878  -2.2461  -2.2003  -2.1663  -2.0757  -1.9889  -1.9729  -1.9695
    -1.9618  -1.8501  -1.7446  -1.7279  -1.6978  -1.6225  -1.5989  -1.5658
    -1.3728  -1.2176  -1.1907  -1.1835  -1.1143  -1.0785  -1.0121  -0.9855
    -0.9563  -0.9356  -0.8319

          k = 0.2000 0.5605 0.0000 (691861 PWs)   bands (ev):

   -60.6879 -60.6810 -60.6734 -60.6682 -60.6564 -60.6531 -60.6398 -60.6381
   -60.6361 -60.6328 -60.6308 -60.6292 -60.6272 -60.6271 -60.6121 -60.6100
   -60.5990 -60.5952 -36.0488 -36.0361 -36.0005 -35.9743 -35.9322 -35.9071
   -35.8929 -35.8913 -35.8896 -35.8887 -35.8617 -35.8428 -35.8257 -35.8079
   -35.8070 -35.7318 -35.7232 -35.7015 -35.6985 -35.6884 -35.6711 -35.6679
   -35.6561 -35.6554 -35.6461 -35.6361 -35.6345 -35.6190 -35.6162 -35.6131
   -35.6081 -35.6080 -35.6056 -35.6052 -35.6028 -35.5862 -35.5819 -35.5801
   -35.5639 -35.5635 -35.5611 -35.5536 -35.5141 -35.4895 -35.4331 -35.3869
   -35.3854 -35.3608 -35.3563 -35.3400 -35.2894 -35.2880 -35.2454 -35.2108
   -18.8280 -18.7379 -18.7000 -18.6226 -18.5858 -18.5203 -18.4779 -18.4740
   -18.4627 -18.4320 -18.4268 -18.4173 -18.3823 -18.3467 -18.3276 -18.3036
   -18.2860 -18.2751 -11.7394 -11.6944 -11.6229 -11.5786 -11.5709 -11.5678
   -11.4591 -11.3640 -11.3218 -11.2719 -11.2630 -11.1695 -10.8799 -10.8364
   -10.7561 -10.7285 -10.2543 -10.1673  -9.9871  -9.9128  -9.2780  -9.2358
    -9.2262  -9.0092  -8.9818  -8.8641  -8.8306  -8.8201  -8.7620  -8.7527
    -8.7432  -8.7205  -8.7099  -8.6474  -8.5325  -8.5313  -8.5271  -8.4844
    -8.4399  -8.3669  -8.3586  -8.3301  -8.3052  -8.2472  -8.2149  -8.1260
    -8.1178  -8.0892  -8.0877  -8.0362  -8.0316  -8.0032  -7.9682  -7.9368
    -7.9192  -7.9136  -7.8922  -7.8738  -7.8709  -7.7815  -7.7812  -7.7088
    -7.4982  -7.4969  -7.2215  -7.1899  -7.1847  -7.1707  -7.1636  -7.1611
    -7.1335  -7.1254  -6.9517  -6.9066  -6.5652  -6.5455  -6.5355  -6.1757
    -5.9857  -5.9578  -5.8610  -5.6977  -5.6121  -5.3758  -5.0807  -5.0544
    -4.8845  -4.8426  -4.4513  -4.3392  -4.2473  -4.1419  -4.0979  -4.0307
    -4.0167  -3.9859  -3.9718  -3.8778  -3.6642  -3.5905  -3.5469  -3.4756
    -3.4557  -3.3682  -3.1666  -2.6517  -2.4958  -2.4638  -2.4013  -2.3431
    -2.3394  -2.2868  -2.1581  -2.1142  -2.0822  -2.0173  -1.9834  -1.9484
    -1.9446  -1.9379  -1.8878  -1.7113  -1.6838  -1.6629  -1.6054  -1.5506
    -1.4698  -1.4186  -1.3741  -1.2955  -1.2594  -1.2559  -1.2451  -1.2378
    -1.2340  -1.0616  -0.9025

          k = 0.4000 0.0000 0.0000 (691987 PWs)   bands (ev):

   -60.6903 -60.6850 -60.6602 -60.6602 -60.6575 -60.6575 -60.6486 -60.6393
   -60.6393 -60.6378 -60.6339 -60.6339 -60.6156 -60.6156 -60.6129 -60.6128
   -60.6012 -60.5957 -36.0006 -36.0006 -35.9798 -35.9798 -35.9723 -35.9723
   -35.9411 -35.9411 -35.8880 -35.8542 -35.8250 -35.8250 -35.8107 -35.7956
   -35.7859 -35.7859 -35.7071 -35.6963 -35.6920 -35.6729 -35.6609 -35.6565
   -35.6565 -35.6515 -35.6515 -35.6481 -35.6481 -35.6459 -35.6201 -35.6201
   -35.6118 -35.6118 -35.5965 -35.5964 -35.5840 -35.5840 -35.5799 -35.5799
   -35.5766 -35.5700 -35.5671 -35.5546 -35.5387 -35.5033 -35.3820 -35.3820
   -35.3487 -35.3487 -35.3386 -35.3386 -35.3254 -35.3254 -35.2477 -35.2076
   -18.8797 -18.8313 -18.5945 -18.5539 -18.5132 -18.5132 -18.5118 -18.5081
   -18.4839 -18.4839 -18.3491 -18.3491 -18.3479 -18.3479 -18.3385 -18.3385
   -18.3306 -18.3306 -11.7176 -11.7176 -11.6444 -11.6443 -11.5156 -11.4435
   -11.4142 -11.4135 -11.4135 -11.2649 -11.2438 -11.2438 -10.8753 -10.8752
   -10.6564 -10.6564 -10.4148 -10.2266  -9.8705  -9.6181  -9.4846  -9.4846
    -9.2617  -9.2617  -9.1156  -9.0238  -8.8219  -8.8068  -8.6591  -8.6460
    -8.5495  -8.5214  -8.5214  -8.4807  -8.4807  -8.4764  -8.4764  -8.4447
    -8.4447  -8.4372  -8.3657  -8.3657  -8.3324  -8.3324  -8.1751  -8.1588
    -8.1511  -8.0567  -8.0567  -8.0384  -8.0384  -8.0031  -8.0031  -7.9746
    -7.9590  -7.9016  -7.9016  -7.8743  -7.5601  -7.5601  -7.5403  -7.5403
    -7.4324  -7.4324  -7.3876  -7.3652  -7.3652  -7.3061  -7.2860  -7.2860
    -7.1507  -7.1506  -6.9728  -6.8528  -6.8528  -6.7416  -6.6405  -6.6405
    -5.6993  -5.6993  -5.4861  -5.4861  -5.1586  -5.1276  -5.1276  -5.0449
    -5.0449  -4.6444  -4.6026  -4.6026  -4.5603  -4.5601  -4.4649  -4.4649
    -4.1843  -4.1842  -3.9144  -3.9144  -3.5431  -3.4421  -3.3550  -3.3550
    -3.2275  -3.0230  -3.0230  -2.9978  -2.8420  -2.8420  -2.7527  -2.7527
    -2.4375  -2.1901  -2.1150  -2.0659  -2.0659  -2.0481  -2.0481  -1.9789
    -1.9310  -1.9165  -1.7144  -1.5351  -1.5351  -1.4092  -1.3803  -1.3803
    -1.3329  -1.3119  -1.3119  -1.2705  -1.0000  -1.0000  -0.8339  -0.8339
    -0.7518  -0.7518  -0.6851

          k = 0.4000 0.2802 0.0000 (691877 PWs)   bands (ev):

   -60.6889 -60.6837 -60.6699 -60.6663 -60.6498 -60.6482 -60.6481 -60.6420
   -60.6375 -60.6369 -60.6347 -60.6335 -60.6222 -60.6206 -60.6102 -60.6065
   -60.6017 -60.5964 -36.0386 -36.0259 -35.9765 -35.9548 -35.9462 -35.9407
   -35.9305 -35.9181 -35.8904 -35.8863 -35.8699 -35.8459 -35.8061 -35.7784
   -35.7554 -35.7405 -35.7196 -35.7118 -35.7042 -35.7033 -35.6938 -35.6688
   -35.6648 -35.6512 -35.6495 -35.6350 -35.6324 -35.6313 -35.6261 -35.6150
   -35.6150 -35.6099 -35.5929 -35.5929 -35.5904 -35.5852 -35.5774 -35.5719
   -35.5718 -35.5624 -35.5481 -35.5478 -35.5386 -35.4827 -35.4152 -35.3959
   -35.3710 -35.3702 -35.3571 -35.3364 -35.2904 -35.2903 -35.2485 -35.2123
   -18.8586 -18.8112 -18.6114 -18.5796 -18.5766 -18.5401 -18.5006 -18.4967
   -18.4297 -18.4112 -18.4058 -18.3858 -18.3831 -18.3758 -18.3303 -18.3183
   -18.3011 -18.2900 -11.7702 -11.7250 -11.6430 -11.5448 -11.5125 -11.4580
   -11.4349 -11.4329 -11.3477 -11.3145 -11.2872 -11.1558 -11.0159 -10.7951
   -10.7347 -10.5219 -10.4379 -10.2474  -9.8532  -9.6264  -9.6015  -9.3933
    -9.2995  -9.0907  -9.0677  -8.9735  -8.8361  -8.8146  -8.6829  -8.6208
    -8.6085  -8.6080  -8.6074  -8.5467  -8.5374  -8.5234  -8.4793  -8.4373
    -8.4164  -8.3997  -8.3685  -8.3415  -8.3389  -8.2711  -8.1389  -8.1185
    -8.1105  -8.0901  -8.0690  -8.0626  -8.0099  -7.9698  -7.9669  -7.9553
    -7.9523  -7.9267  -7.8909  -7.8901  -7.8848  -7.8478  -7.6252  -7.5568
    -7.3859  -7.3445  -7.3007  -7.2664  -7.2581  -7.2472  -7.2188  -7.1821
    -7.1816  -7.0589  -6.9929  -6.9919  -6.7761  -6.7671  -6.6474  -6.4426
    -5.7214  -5.6170  -5.6095  -5.4889  -5.4750  -5.4228  -5.3057  -4.9348
    -4.9336  -4.7757  -4.5965  -4.5635  -4.3924  -4.2810  -4.2731  -4.2203
    -4.1934  -4.0263  -3.9657  -3.6808  -3.6395  -3.6135  -3.3693  -3.3233
    -3.3168  -3.1349  -2.9319  -2.8357  -2.7808  -2.7764  -2.7699  -2.7229
    -2.5932  -2.4392  -2.1121  -2.1091  -2.0677  -2.0280  -2.0149  -1.9877
    -1.8857  -1.7767  -1.6209  -1.5877  -1.5305  -1.4894  -1.4228  -1.4208
    -1.3749  -1.3621  -1.3425  -1.3024  -1.2882  -1.1832  -1.1664  -0.9351
    -0.9151  -0.8181  -0.6466

          k = 0.4000 0.5605 0.0000 (691841 PWs)   bands (ev):

   -60.6848 -60.6799 -60.6784 -60.6740 -60.6467 -60.6445 -60.6394 -60.6388
   -60.6368 -60.6358 -60.6350 -60.6339 -60.6301 -60.6295 -60.6061 -60.6033
   -60.6017 -60.5983 -36.0565 -36.0522 -35.9642 -35.9338 -35.9287 -35.9254
   -35.9144 -35.8993 -35.8987 -35.8935 -35.8805 -35.8464 -35.8095 -35.7891
   -35.7717 -35.7571 -35.7440 -35.7019 -35.6961 -35.6866 -35.6852 -35.6839
   -35.6752 -35.6545 -35.6399 -35.6327 -35.6241 -35.6238 -35.6190 -35.6184
   -35.6174 -35.6114 -35.6097 -35.6041 -35.6033 -35.6005 -35.5726 -35.5688
   -35.5655 -35.5597 -35.5263 -35.5023 -35.4796 -35.4595 -35.4559 -35.4422
   -35.4225 -35.4028 -35.3409 -35.3339 -35.2665 -35.2534 -35.2528 -35.2269
   -18.7990 -18.7546 -18.7118 -18.6718 -18.5380 -18.5016 -18.4780 -18.4699
   -18.4652 -18.4465 -18.4273 -18.4215 -18.3695 -18.3503 -18.3364 -18.3212
   -18.2738 -18.2701 -11.7912 -11.7759 -11.5601 -11.5032 -11.4862 -11.4851
   -11.4409 -11.4098 -11.3696 -11.3497 -11.2583 -11.1462 -11.0502 -10.9286
   -10.6069 -10.5043 -10.4021 -10.3077  -9.8047  -9.7300  -9.5563  -9.4883
    -9.0779  -8.9300  -8.8891  -8.8438  -8.8403  -8.8279  -8.8051  -8.7967
    -8.7369  -8.7265  -8.6763  -8.6063  -8.5848  -8.5732  -8.4719  -8.4346
    -8.4284  -8.4182  -8.3624  -8.3349  -8.2204  -8.2051  -8.1734  -8.1096
    -8.0933  -8.0539  -8.0507  -8.0308  -8.0025  -8.0018  -7.9891  -7.9808
    -7.9496  -7.9402  -7.9351  -7.9312  -7.9163  -7.8941  -7.8093  -7.7521
    -7.3803  -7.3690  -7.2852  -7.2596  -7.1185  -7.0983  -7.0909  -7.0890
    -7.0474  -7.0431  -7.0331  -7.0016  -6.8332  -6.8164  -6.3823  -6.1892
    -6.0402  -5.8727  -5.6651  -5.5205  -5.4551  -5.3834  -5.3012  -5.2025
    -5.2024  -5.0550  -4.1525  -4.1193  -4.1138  -4.0655  -4.0653  -4.0650
    -4.0598  -3.9102  -3.8354  -3.8039  -3.7510  -3.6117  -3.5977  -3.3297
    -3.3237  -3.2037  -3.0816  -2.9157  -2.7821  -2.6852  -2.5607  -2.5598
    -2.4912  -2.2745  -2.2280  -2.1408  -2.0964  -2.0875  -2.0725  -2.0679
    -2.0319  -2.0227  -2.0089  -1.8668  -1.5136  -1.4720  -1.4642  -1.4526
    -1.4138  -1.3726  -1.3356  -1.3340  -1.2422  -1.1624  -1.1597  -0.9944
    -0.8427  -0.7819  -0.7658

     the Fermi energy is    -3.7121 ev

!    total energy              =   -2464.32604163 Ry
     estimated scf accuracy    <          9.2E-09 Ry
     smearing contrib. (-TS)   =      -0.01363293 Ry
     internal energy E=F+TS    =   -2464.31240870 Ry

     The total energy is F=E-TS. E is the sum of the following terms:
     one-electron contribution =  -39875.52699323 Ry
     hartree contribution      =   19874.96693483 Ry
     xc contribution           =    -370.48649136 Ry
     ewald contribution        =   17906.73414107 Ry

     convergence has been achieved in  17 iterations

     Forces acting on atoms (cartesian axes, Ry/au):

     atom    1 type  1   force =     0.00000000    0.00011468    0.00105761
     atom    2 type  1   force =     0.00000000    0.00001955    0.00106113
     atom    3 type  1   force =     0.00000000   -0.00013296    0.00106652
     atom    4 type  1   force =    -0.00001254   -0.00003961   -0.00107069
     atom    5 type  1   force =    -0.00002626   -0.00014158   -0.00105992
     atom    6 type  1   force =    -0.00001787    0.00008184   -0.00106338
     atom    7 type  1   force =     0.00000460    0.00011715    0.00104056
     atom    8 type  1   force =    -0.00002039   -0.00000904    0.00104654
     atom    9 type  1   force =    -0.00003477   -0.00010322    0.00104491
     atom   10 type  1   force =     0.00000000    0.00000068   -0.00108953
     atom   11 type  1   force =     0.00000000   -0.00016101   -0.00107852
     atom   12 type  1   force =     0.00000000    0.00005543   -0.00108074
     atom   13 type  1   force =    -0.00000460    0.00011715    0.00104056
     atom   14 type  1   force =     0.00002039   -0.00000904    0.00104654
     atom   15 type  1   force =     0.00003477   -0.00010322    0.00104491
     atom   16 type  1   force =     0.00001254   -0.00003961   -0.00107069
     atom   17 type  1   force =     0.00002626   -0.00014158   -0.00105992
     atom   18 type  1   force =     0.00001787    0.00008184   -0.00106338
     atom   19 type  2   force =     0.00527951    0.00002063   -0.00190285
     atom   20 type  2   force =     0.00528484   -0.00000719   -0.00190457
     atom   21 type  2   force =     0.00526234    0.00001431   -0.00188463
     atom   22 type  2   force =    -0.00524554    0.00001893    0.00191109
     atom   23 type  2   force =    -0.00523868    0.00000233    0.00191503
     atom   24 type  2   force =    -0.00526418    0.00000106    0.00190651
     atom   25 type  2   force =     0.00526119    0.00000226    0.00190740
[...]
    -1.9706  -1.8783  -1.7595  -1.7363  -1.7182  -1.6303  -1.5964  -1.5903
    -1.3990  -1.2167  -1.2160  -1.2153  -1.1199  -1.0880  -1.0159  -0.9826
    -0.9612  -0.9547  -0.8368

          k = 0.2000 0.5605 0.0000 (691861 PWs)   bands (ev):

   -60.6963 -60.6894 -60.6818 -60.6766 -60.6648 -60.6616 -60.6483 -60.6466
   -60.6446 -60.6413 -60.6393 -60.6377 -60.6357 -60.6356 -60.6206 -60.6185
   -60.6076 -60.6038 -36.0529 -36.0403 -36.0047 -35.9785 -35.9373 -35.9122
   -35.8974 -35.8969 -35.8948 -35.8942 -35.8658 -35.8482 -35.8309 -35.8139
   -35.8121 -35.7372 -35.7284 -35.7085 -35.7049 -35.6955 -35.6782 -35.6747
   -35.6631 -35.6609 -35.6533 -35.6425 -35.6397 -35.6262 -35.6234 -35.6203
   -35.6153 -35.6151 -35.6127 -35.6124 -35.6101 -35.5921 -35.5891 -35.5871
   -35.5710 -35.5701 -35.5682 -35.5603 -35.5209 -35.4967 -35.4401 -35.3941
   -35.3927 -35.3679 -35.3636 -35.3471 -35.2971 -35.2955 -35.2533 -35.2187
   -18.8042 -18.7149 -18.6761 -18.5994 -18.5616 -18.4969 -18.4532 -18.4488
   -18.4378 -18.4077 -18.4030 -18.3933 -18.3614 -18.3256 -18.3066 -18.2825
   -18.2650 -18.2540 -11.7346 -11.6898 -11.6230 -11.5801 -11.5740 -11.5697
   -11.4561 -11.3612 -11.3302 -11.2726 -11.2703 -11.1719 -10.8827 -10.8389
   -10.7588 -10.7327 -10.2609 -10.1751  -9.9734  -9.8985  -9.2697  -9.2265
    -9.2178  -8.9974  -8.9743  -8.8511  -8.8211  -8.8092  -8.7503  -8.7420
    -8.7302  -8.7068  -8.7052  -8.6382  -8.5278  -8.5212  -8.5106  -8.4709
    -8.4326  -8.3608  -8.3504  -8.3086  -8.2882  -8.2375  -8.2077  -8.1123
    -8.1017  -8.0798  -8.0691  -8.0323  -8.0158  -7.9873  -7.9495  -7.9373
    -7.9145  -7.8989  -7.8724  -7.8722  -7.8575  -7.7830  -7.7829  -7.6938
    -7.4999  -7.4994  -7.2241  -7.1861  -7.1823  -7.1617  -7.1551  -7.1511
    -7.1223  -7.1138  -6.9455  -6.9027  -6.5601  -6.5467  -6.5282  -6.1793
    -5.9904  -5.9569  -5.8571  -5.7049  -5.6210  -5.3871  -5.0875  -5.0672
    -4.8902  -4.8571  -4.4651  -4.3488  -4.2624  -4.1504  -4.1100  -4.0445
    -4.0266  -3.9996  -3.9863  -3.8866  -3.6703  -3.6027  -3.5592  -3.4860
    -3.4710  -3.3778  -3.1847  -2.6718  -2.4892  -2.4654  -2.4109  -2.3573
    -2.3312  -2.2877  -2.1475  -2.1121  -2.1023  -2.0181  -1.9756  -1.9609
    -1.9599  -1.9574  -1.9136  -1.7281  -1.7033  -1.6870  -1.6333  -1.5743
    -1.4766  -1.4277  -1.3755  -1.3047  -1.2702  -1.2677  -1.2635  -1.2579
    -1.2355  -1.0702  -0.9053

          k = 0.4000 0.0000 0.0000 (691987 PWs)   bands (ev):

   -60.6987 -60.6934 -60.6687 -60.6687 -60.6660 -60.6660 -60.6571 -60.6478
   -60.6478 -60.6463 -60.6424 -60.6424 -60.6241 -60.6241 -60.6214 -60.6214
   -60.6097 -60.6043 -36.0051 -36.0051 -35.9843 -35.9842 -35.9767 -35.9767
   -35.9456 -35.9456 -35.8944 -35.8607 -35.8295 -35.8295 -35.8159 -35.8007
   -35.7905 -35.7905 -35.7141 -35.7032 -35.6974 -35.6800 -35.6664 -35.6632
   -35.6632 -35.6585 -35.6585 -35.6553 -35.6553 -35.6530 -35.6273 -35.6273
   -35.6190 -35.6190 -35.6030 -35.6030 -35.5913 -35.5913 -35.5871 -35.5871
   -35.5838 -35.5771 -35.5743 -35.5603 -35.5444 -35.5105 -35.3891 -35.3891
   -35.3559 -35.3559 -35.3462 -35.3462 -35.3329 -35.3329 -35.2555 -35.2156
   -18.8552 -18.8067 -18.5694 -18.5287 -18.4915 -18.4915 -18.4858 -18.4822
   -18.4623 -18.4623 -18.3271 -18.3271 -18.3256 -18.3256 -18.3162 -18.3162
   -18.3086 -18.3086 -11.7142 -11.7141 -11.6411 -11.6410 -11.5215 -11.4511
   -11.4178 -11.4133 -11.4133 -11.2688 -11.2459 -11.2459 -10.8759 -10.8758
   -10.6588 -10.6588 -10.4215 -10.2344  -9.8600  -9.6095  -9.4746  -9.4746
    -9.2541  -9.2541  -9.1037  -9.0115  -8.8034  -8.7883  -8.6437  -8.6329
    -8.5300  -8.5153  -8.5153  -8.4723  -8.4723  -8.4707  -8.4707  -8.4388
    -8.4388  -8.4174  -8.3538  -8.3538  -8.3288  -8.3288  -8.1618  -8.1542
    -8.1382  -8.0391  -8.0391  -8.0213  -8.0213  -8.0035  -8.0035  -7.9740
    -7.9374  -7.9038  -7.9038  -7.8524  -7.5456  -7.5456  -7.5251  -7.5251
    -7.4190  -7.4190  -7.3911  -7.3530  -7.3530  -7.3099  -7.2838  -7.2838
    -7.1491  -7.1491  -6.9627  -6.8495  -6.8495  -6.7316  -6.6386  -6.6385
    -5.7067  -5.7066  -5.4957  -5.4957  -5.1502  -5.1367  -5.1367  -5.0560
    -5.0559  -4.6368  -4.6176  -4.6175  -4.5726  -4.5725  -4.4808  -4.4807
    -4.1960  -4.1960  -3.9260  -3.9260  -3.5533  -3.4509  -3.3730  -3.3729
    -3.2379  -3.0404  -3.0403  -3.0054  -2.8417  -2.8417  -2.7521  -2.7521
    -2.4366  -2.2115  -2.1423  -2.0749  -2.0749  -2.0595  -2.0594  -2.0070
    -1.9440  -1.9181  -1.7293  -1.5533  -1.5533  -1.4420  -1.4010  -1.4010
    -1.3402  -1.3221  -1.3221  -1.3042  -1.0111  -1.0111  -0.8372  -0.8372
    -0.7519  -0.7518  -0.6900

          k = 0.4000 0.2802 0.0000 (691877 PWs)   bands (ev):

   -60.6973 -60.6921 -60.6784 -60.6748 -60.6583 -60.6566 -60.6566 -60.6504
   -60.6460 -60.6454 -60.6432 -60.6420 -60.6308 -60.6291 -60.6188 -60.6151
   -60.6102 -60.6049 -36.0429 -36.0301 -35.9808 -35.9596 -35.9509 -35.9450
   -35.9352 -35.9228 -35.8966 -35.8907 -35.8759 -35.8502 -35.8114 -35.7839
   -35.7602 -35.7462 -35.7244 -35.7181 -35.7112 -35.7090 -35.7008 -35.6759
   -35.6720 -35.6580 -35.6559 -35.6422 -35.6396 -35.6382 -35.6333 -35.6222
   -35.6221 -35.6171 -35.6001 -35.5997 -35.5977 -35.5918 -35.5846 -35.5790
   -35.5788 -35.5687 -35.5547 -35.5541 -35.5454 -35.4898 -35.4222 -35.4033
   -35.3781 -35.3775 -35.3642 -35.3436 -35.2980 -35.2980 -35.2564 -35.2203
   -18.8342 -18.7868 -18.5890 -18.5547 -18.5542 -18.5151 -18.4748 -18.4710
   -18.4086 -18.3885 -18.3846 -18.3630 -18.3599 -18.3526 -18.3087 -18.2967
   -18.2798 -18.2686 -11.7657 -11.7206 -11.6411 -11.5431 -11.5181 -11.4593
   -11.4421 -11.4360 -11.3466 -11.3180 -11.2906 -11.1569 -11.0154 -10.7963
   -10.7369 -10.5256 -10.4442 -10.2549  -9.8424  -9.6152  -9.5926  -9.3844
    -9.2911  -9.0845  -9.0557  -8.9611  -8.8195  -8.7978  -8.6756  -8.6161
    -8.6013  -8.5931  -8.5923  -8.5300  -8.5260  -8.5159  -8.4751  -8.4185
    -8.4072  -8.3859  -8.3615  -8.3355  -8.3285  -8.2657  -8.1334  -8.1044
    -8.0921  -8.0763  -8.0622  -8.0505  -7.9972  -7.9661  -7.9567  -7.9488
    -7.9412  -7.9275  -7.8936  -7.8701  -7.8688  -7.8311  -7.6100  -7.5424
    -7.3891  -7.3444  -7.3042  -7.2535  -7.2450  -7.2362  -7.2188  -7.1769
    -7.1724  -7.0556  -6.9867  -6.9831  -6.7719  -6.7576  -6.6466  -6.4431
    -5.7262  -5.6239  -5.6190  -5.4973  -5.4823  -5.4347  -5.3013  -4.9468
    -4.9360  -4.7904  -4.6077  -4.5770  -4.4024  -4.2962  -4.2783  -4.2325
    -4.2091  -4.0368  -3.9756  -3.6938  -3.6558  -3.6238  -3.3787  -3.3344
    -3.3320  -3.1527  -2.9402  -2.8449  -2.7941  -2.7773  -2.7718  -2.7181
    -2.5965  -2.4494  -2.1383  -2.1131  -2.0738  -2.0441  -2.0289  -2.0149
    -1.8937  -1.7898  -1.6252  -1.5836  -1.5518  -1.4958  -1.4545  -1.4332
    -1.3870  -1.3848  -1.3592  -1.3208  -1.3066  -1.1942  -1.1755  -0.9360
    -0.9137  -0.8312  -0.6512

          k = 0.4000 0.5605 0.0000 (691841 PWs)   bands (ev):

   -60.6932 -60.6883 -60.6868 -60.6824 -60.6552 -60.6530 -60.6479 -60.6473
   -60.6453 -60.6443 -60.6435 -60.6424 -60.6386 -60.6380 -60.6147 -60.6119
   -60.6103 -60.6069 -36.0606 -36.0563 -35.9683 -35.9380 -35.9339 -35.9295
   -35.9196 -35.9050 -35.9043 -35.8977 -35.8855 -35.8515 -35.8149 -35.7948
   -35.7771 -35.7632 -35.7499 -35.7082 -35.7031 -35.6936 -35.6910 -35.6904
   -35.6822 -35.6597 -35.6470 -35.6398 -35.6308 -35.6297 -35.6261 -35.6256
   -35.6247 -35.6186 -35.6169 -35.6114 -35.6106 -35.6062 -35.5798 -35.5758
   -35.5727 -35.5666 -35.5333 -35.5092 -35.4866 -35.4667 -35.4629 -35.4493
   -35.4297 -35.4099 -35.3481 -35.3411 -35.2743 -35.2612 -35.2606 -35.2349
   -18.7752 -18.7307 -18.6887 -18.6486 -18.5136 -18.4771 -18.4544 -18.4447
   -18.4402 -18.4228 -18.4031 -18.3974 -18.3486 -18.3294 -18.3153 -18.3001
   -18.2528 -18.2491 -11.7861 -11.7709 -11.5601 -11.5076 -11.4891 -11.4869
   -11.4411 -11.4161 -11.3745 -11.3517 -11.2568 -11.1450 -11.0508 -10.9292
   -10.6107 -10.5096 -10.4074 -10.3143  -9.7933  -9.7182  -9.5468  -9.4787
    -9.0710  -8.9181  -8.8840  -8.8347  -8.8307  -8.8154  -8.7920  -8.7870
    -8.7273  -8.7156  -8.6719  -8.5947  -8.5691  -8.5598  -8.4527  -8.4228
    -8.4122  -8.4049  -8.3534  -8.3255  -8.2126  -8.1913  -8.1666  -8.1038
    -8.0863  -8.0417  -8.0365  -8.0201  -7.9843  -7.9826  -7.9816  -7.9654
    -7.9486  -7.9303  -7.9252  -7.9185  -7.9154  -7.8967  -7.7934  -7.7368
    -7.3828  -7.3704  -7.2877  -7.2609  -7.1099  -7.0917  -7.0793  -7.0773
    -7.0403  -7.0359  -7.0244  -6.9966  -6.8269  -6.8083  -6.3843  -6.1924
    -6.0447  -5.8785  -5.6672  -5.5197  -5.4669  -5.3884  -5.3180  -5.2105
    -5.2054  -5.0677  -4.1631  -4.1321  -4.1278  -4.0789  -4.0781  -4.0781
    -4.0686  -3.9245  -3.8455  -3.8154  -3.7607  -3.6242  -3.6101  -3.3423
    -3.3345  -3.2152  -3.0967  -2.9268  -2.7928  -2.7000  -2.5651  -2.5519
    -2.4823  -2.2811  -2.2353  -2.1297  -2.1103  -2.0967  -2.0738  -2.0571
    -2.0503  -2.0432  -2.0334  -1.8759  -1.5382  -1.4929  -1.4876  -1.4719
    -1.4284  -1.3976  -1.3650  -1.3464  -1.2518  -1.1603  -1.1586  -1.0036
    -0.8584  -0.7876  -0.7832

     the Fermi energy is    -3.7238 ev

!    total energy              =   -2464.32665400 Ry
     estimated scf accuracy    <          1.0E-10 Ry
     smearing contrib. (-TS)   =      -0.01363930 Ry
     internal energy E=F+TS    =   -2464.31301470 Ry

     The total energy is F=E-TS. E is the sum of the following terms:
     one-electron contribution =  -39860.88184659 Ry
     hartree contribution      =   19867.56829223 Ry
     xc contribution           =    -370.34719619 Ry
     ewald contribution        =   17899.34773586 Ry

     convergence has been achieved in  16 iterations

     Forces acting on atoms (cartesian axes, Ry/au):

     atom    1 type  1   force =     0.00000000   -0.00000852    0.00007637
     atom    2 type  1   force =     0.00000000   -0.00000519    0.00008740
     atom    3 type  1   force =     0.00000000    0.00001815    0.00006404
     atom    4 type  1   force =     0.00001027    0.00000723   -0.00006978
     atom    5 type  1   force =     0.00001007    0.00001559   -0.00007679
     atom    6 type  1   force =     0.00000604   -0.00001242   -0.00007677
     atom    7 type  1   force =    -0.00000857   -0.00001210    0.00008017
     atom    8 type  1   force =    -0.00000449   -0.00000190    0.00008961
     atom    9 type  1   force =    -0.00000902    0.00001708    0.00006419
     atom   10 type  1   force =     0.00000000    0.00000524   -0.00007089
     atom   11 type  1   force =     0.00000000    0.00001841   -0.00007851
     atom   12 type  1   force =     0.00000000   -0.00001281   -0.00007801
     atom   13 type  1   force =     0.00000857   -0.00001210    0.00008017
     atom   14 type  1   force =     0.00000449   -0.00000190    0.00008961
     atom   15 type  1   force =     0.00000902    0.00001708    0.00006419
     atom   16 type  1   force =    -0.00001027    0.00000723   -0.00006978
     atom   17 type  1   force =    -0.00001007    0.00001559   -0.00007679
     atom   18 type  1   force =    -0.00000604   -0.00001242   -0.00007677
     atom   19 type  2   force =    -0.00004991    0.00001082    0.00000634
     atom   20 type  2   force =    -0.00002653   -0.00001252    0.00000349
     atom   21 type  2   force =    -0.00002449    0.00000590    0.00000371
     atom   22 type  2   force =     0.00005472    0.00000208   -0.00000703
     atom   23 type  2   force =     0.00002310   -0.00000714   -0.00000235
     atom   24 type  2   force =     0.00005109   -0.00000632   -0.00001840
     atom   25 type  2   force =    -0.00004682   -0.00000609   -0.00001804
     atom   26 type  2   force =    -0.00002558   -0.00000711   -0.00000073
     atom   27 type  2   force =    -0.00005071    0.00000166   -0.00000733
     atom   28 type  2   force =     0.00004327    0.00001086    0.00000766
     atom   29 type  2   force =    -0.00004296    0.00000930    0.00000778
     atom   30 type  2   force =     0.00003472   -0.00001181    0.00000714
     atom   31 type  2   force =    -0.00003748   -0.00000815    0.00000708
     atom   32 type  2   force =     0.00003082    0.00000555    0.00000881
     atom   33 type  2   force =    -0.00003415    0.00000345    0.00000846
     atom   34 type  2   force =     0.00004500   -0.00000105   -0.00000367
     atom   35 type  2   force =    -0.00004500   -0.00000105   -0.00000367
     atom   36 type  2   force =     0.00002597   -0.00000635   -0.00000340
     atom   37 type  2   force =    -0.00002597   -0.00000635   -0.00000340
     atom   38 type  2   force =     0.00005432   -0.00000421   -0.00001037
     atom   39 type  2   force =    -0.00005432   -0.00000421   -0.00001037
     atom   40 type  2   force =     0.00004296    0.00000930    0.00000778
     atom   41 type  2   force =    -0.00004327    0.00001086    0.00000766
     atom   42 type  2   force =     0.00003748   -0.00000815    0.00000708
     atom   43 type  2   force =    -0.00003472   -0.00001181    0.00000714
     atom   44 type  2   force =     0.00003415    0.00000345    0.00000846
     atom   45 type  2   force =    -0.00003082    0.00000555    0.00000881
     atom   46 type  2   force =     0.00005071    0.00000166   -0.00000733
     atom   47 type  2   force =    -0.00005472    0.00000208   -0.00000703
     atom   48 type  2   force =     0.00002558   -0.00000711   -0.00000073
     atom   49 type  2   force =     0.00002449    0.00000590    0.00000371
     atom   50 type  2   force =     0.00002653   -0.00001252    0.00000349
     atom   51 type  2   force =     0.00004991    0.00001082    0.00000634
     atom   52 type  2   force =     0.00004682   -0.00000609   -0.00001804
     atom   53 type  2   force =    -0.00005109   -0.00000632   -0.00001840
     atom   54 type  2   force =    -0.00002310   -0.00000714   -0.00000235

     Total force =     0.000415     Total SCF correction =     0.000019
     Energy error            =      4.8E-07 Ry
     Gradient error          =      9.0E-05 Ry/Bohr

     bfgs converged in   7 scf cycles and   6 bfgs steps
     (criteria: energy <  1.0E-05 Ry, force <  1.0E-04 Ry/Bohr)

     End of BFGS Geometry Optimization

     Final energy             =   -2464.3266539972 Ry

     File /home/fernando/serse/temp/NB.bfgs deleted, as requested
Begin final coordinates

ATOMIC_POSITIONS (angstrom)
Nb            0.0000000000        1.7587184576        1.2422231420
Nb            0.0000000000        5.2986073057        1.2422342048
Nb            0.0000000000        8.8385837331        1.2421943052
Nb            2.4799735824       10.6086646660        1.0724622712
Nb            2.4799712401        7.0685619579        1.0724533283
Nb            2.4799715227        3.5286856746        1.0724552953
Nb            4.9599828393        1.7587109307        1.2422190738
Nb            4.9599765547        5.2986114675        1.2422341429
Nb            4.9599899713        8.8385877145        1.2421891670
Nb            7.4399669640       10.6086565338        1.0724568735
Nb            7.4399669640        7.0685692248        1.0724520586
Nb            7.4399669640        3.5286850339        1.0724511538
Nb            9.9199510887        1.7587109307        1.2422190738
Nb            9.9199573733        5.2986114675        1.2422341429
Nb            9.9199439567        8.8385877145        1.2421891670
Nb           12.3999603456       10.6086646660        1.0724622712
Nb           12.3999626879        7.0685619579        1.0724533283
Nb           12.3999624053        3.5286856746        1.0724552953
C             0.6831505272       10.6086564401        0.0225507127
C             0.6831483264        7.0685566834        0.0225452198
C             0.6831601941        3.5286632255        0.0225881088
C             1.7968183450        1.7587139376        2.2921015921
C             1.7968275030        5.2986319910        2.2921213264
C             1.7968306035        8.8386204951        2.2920703309
C             3.1631457250        8.8386198861        2.2920605999
C             3.1631513313        5.2986322697        2.2921143961
C             3.1631539895        1.7587143090        2.2920948146
C             4.2768218093       10.6086573804        0.0225521798
C             5.6431202492       10.6086584078        0.0225457078
C             4.2768215280        7.0685536820        0.0225448891
C             5.6431255224        7.0685476971        0.0225400210
C             4.2768111525        3.5286646241        0.0225857553
C             5.6431365195        3.5286692391        0.0225812537
C             6.7568015435        1.7587174699        2.2920825876
C             8.1231323845        1.7587174699        2.2920825876
C             6.7568046060        5.2986316562        2.2921200280
C             8.1231293220        5.2986316562        2.2921200280
C             6.7568059063        8.8386166930        2.2920425802
C             8.1231280217        8.8386166930        2.2920425802
C             9.2368136788       10.6086584078        0.0225457078
C            10.6031121187       10.6086573804        0.0225521798
C             9.2368084056        7.0685476971        0.0225400210
C            10.6031124000        7.0685536820        0.0225448891
C             9.2367974085        3.5286692391        0.0225812537
C            10.6031227755        3.5286646241        0.0225857553
C            11.7167799385        1.7587143090        2.2920948146
C            13.0831155830        1.7587139376        2.2921015921
C            11.7167825967        5.2986322697        2.2921143961
C            14.1967737339        3.5286632255        0.0225881088
C            14.1967856016        7.0685566834        0.0225452198
C            14.1967834008       10.6086564401        0.0225507127
C            11.7167882030        8.8386198861        2.2920605999
C            13.0831033245        8.8386204951        2.2920703309
C            13.0831064250        5.2986319910        2.2921213264
End final coordinates



     Writing output data file /home/fernando/serse/temp/NB.save/
 
     init_run     :    129.25s CPU    260.60s WALL (       1 calls)
     electrons    :  61183.57s CPU 122866.26s WALL (       7 calls)
     update_pot   :     20.43s CPU     41.02s WALL (       6 calls)
     forces       :    437.63s CPU    877.06s WALL (       7 calls)

     Called by init_run:
     wfcinit      :    122.22s CPU    246.32s WALL (       1 calls)
     potinit      :      2.10s CPU      4.32s WALL (       1 calls)
     hinit0       :      1.37s CPU      2.76s WALL (       1 calls)

     Called by electrons:
     c_bands      :  54933.00s CPU 110290.17s WALL (     143 calls)
     sum_band     :   5843.26s CPU  11712.73s WALL (     143 calls)
     v_of_rho     :     97.87s CPU    204.32s WALL (     146 calls)
     mix_rho      :    274.41s CPU    555.55s WALL (     143 calls)

     Called by c_bands:
     init_us_2    :    137.24s CPU    267.77s WALL (    2646 calls)
     cegterg      :  53982.18s CPU 108384.97s WALL (    1290 calls)

     Called by *egterg:
     cdiaghg      :   1001.78s CPU   2011.69s WALL (    7631 calls)
     h_psi        :  34881.45s CPU  69985.03s WALL (    7730 calls)
     g_psi        :     57.25s CPU    114.22s WALL (    6431 calls)

     Called by h_psi:
     h_psi:calbec :   5201.49s CPU  10435.55s WALL (    7730 calls)
     vloc_psi     :  27234.35s CPU  54600.09s WALL (    7730 calls)
     add_vuspsi   :   2359.47s CPU   4663.97s WALL (    7730 calls)

     General routines
     calbec       :   5589.61s CPU  11214.45s WALL (    7982 calls)
     fft          :     44.89s CPU     89.46s WALL (    1477 calls)
     ffts         :      3.71s CPU      7.36s WALL (     143 calls)
     fftw         :  28586.11s CPU  60386.67s WALL ( 1808017 calls)
 
     Parallel routines
 
     PWSCF        :     17h41m CPU   1d11h33m WALL

 
   This run was terminated on:   1:48:16   5Mar2025            

=------------------------------------------------------------------------------=
   JOB DONE.
=------------------------------------------------------------------------------=
