
     Program PWSCF v.6.8 starts on  5Mar2025 at  1:48:27 

     This program is part of the open-source Quantum ESPRESSO suite
     for quantum simulation of materials; please cite
         "P. Giannozzi et al., J. Phys.:Condens. Matter 21 395502 (2009);
         "P. Giannozzi et al., J. Phys.:Condens. Matter 29 465901 (2017);
         "P. Giannozzi et al., J. Chem. Phys. 152 154105 (2020);
          URL http://www.quantum-espresso.org", 
     in publications or presentations arising from this work. More details at
     http://www.quantum-espresso.org/quote

     Parallel version (MPI & OpenMP), running on      24 processor cores
     Number of MPI processes:                24
     Threads/MPI process:                     1

     MPI processes distributed on     1 nodes
     R & G space division:  proc/nbgrp/npool/nimage =      24
     124051 MiB available memory on the printing compute node when the environment starts
 
     Waiting for input...
     Reading input from standard input

     Current dimensions of program PWSCF are:
     Max number of different atomic species (ntypx) = 10
     Max number of k-points (npk) =  40000
     Max angular momentum in pseudopotentials (lmaxx) =  4
     Found symmetry operation: I + (  0.0000  0.3333  0.0000)
     This is a supercell, fractional translations are disabled

     Subspace diagonalization in iterative solution of the eigenvalue problem:
     a serial algorithm will be used

 
     Parallelization info
     --------------------
     sticks:   dense  smooth     PW     G-vecs:    dense   smooth      PW
     Min         747     747    193               270102   270102   35351
     Max         748     748    194               270108   270108   35360
     Sum       17945   17945   4635              6482521  6482521  848533
 
     Using Slab Decomposition
 

     Title: 
     NB relax                                                                   


     bravais-lattice index     =            8
     lattice parameter (alat)  =      28.1190  a.u.
     unit-cell volume          =   47987.7937 (a.u.)^3
     number of atoms/cell      =           54
     number of atomic types    =            2
     number of electrons       =       378.00
     number of Kohn-Sham states=          227
     kinetic-energy cutoff     =     100.0000  Ry
     charge density cutoff     =     400.0000  Ry
     scf convergence threshold =      1.0E-08
     mixing beta               =       0.7000
     number of iterations used =            8  plain     mixing
     energy convergence thresh.=      1.0E-05
     force convergence thresh. =      1.0E-04
     Exchange-correlation= SLA-PW-PBX-PBC
                           (   1   4   3   4   0   0   0)
     nstep                     =          100


     celldm(1)=  28.119000  celldm(2)=   0.713710  celldm(3)=   3.024194
     celldm(4)=   0.000000  celldm(5)=   0.000000  celldm(6)=   0.000000

     crystal axes: (cart. coord. in units of alat)
               a(1) = (   1.000000   0.000000   0.000000 )  
               a(2) = (   0.000000   0.713710   0.000000 )  
               a(3) = (   0.000000   0.000000   3.024194 )  

     reciprocal axes: (cart. coord. in units 2 pi/alat)
               b(1) = (  1.000000  0.000000  0.000000 )  
               b(2) = (  0.000000  1.401130  0.000000 )  
               b(3) = (  0.000000  0.000000  0.330667 )  


     PseudoPot. # 1 for Nb read from file:
     /home/fernando/serse/pseudos/Nb.pbe-sp-hgh.UPF
     MD5 check sum: 9806bd744c6e87f68d8a90a6c9e3b9fe
     Pseudo is Norm-conserving, Zval = 13.0
     Generated in analytical, separable form
     Using radial grid of 1227 points,  6 beta functions with: 
                l(1) =   0
                l(2) =   0
                l(3) =   1
                l(4) =   1
                l(5) =   2
                l(6) =   2

     PseudoPot. # 2 for C  read from file:
     /home/fernando/serse/pseudos/C.pbe-hgh.UPF
     MD5 check sum: ca26ff84b356733038fc2f5c468d1892
     Pseudo is Norm-conserving, Zval =  4.0
     Generated in analytical, separable form
     Using radial grid of 1073 points,  1 beta functions with: 
                l(1) =   0

     atomic species   valence    mass     pseudopotential
        Nb            13.00    92.90638     Nb( 1.00)
        C              4.00    12.01100     C ( 1.00)

      2 Sym. Ops. (no inversion) found



   Cartesian axes

     site n.     atom                  positions (alat units)
         1           Nb  tau(   1) = (   0.0000000   0.1181889   0.0835051  )
         2           Nb  tau(   2) = (   0.0000000   0.3560922   0.0835051  )
         3           Nb  tau(   3) = (   0.0000000   0.5939954   0.0835051  )
         4           Nb  tau(   4) = (   0.1666667   0.7129537   0.0720485  )
         5           Nb  tau(   5) = (   0.1666667   0.4750505   0.0720485  )
         6           Nb  tau(   6) = (   0.1666667   0.2371473   0.0720485  )
         7           Nb  tau(   7) = (   0.3333333   0.1181889   0.0835051  )
         8           Nb  tau(   8) = (   0.3333333   0.3560922   0.0835051  )
         9           Nb  tau(   9) = (   0.3333333   0.5939954   0.0835051  )
        10           Nb  tau(  10) = (   0.5000000   0.7129537   0.0720485  )
        11           Nb  tau(  11) = (   0.5000000   0.4750505   0.0720485  )
        12           Nb  tau(  12) = (   0.5000000   0.2371473   0.0720485  )
        13           Nb  tau(  13) = (   0.6666667   0.1181889   0.0835051  )
        14           Nb  tau(  14) = (   0.6666667   0.3560922   0.0835051  )
        15           Nb  tau(  15) = (   0.6666667   0.5939954   0.0835051  )
        16           Nb  tau(  16) = (   0.8333333   0.7129537   0.0720485  )
        17           Nb  tau(  17) = (   0.8333333   0.4750505   0.0720485  )
        18           Nb  tau(  18) = (   0.8333333   0.2371473   0.0720485  )
        19           C   tau(  19) = (   0.0460841   0.7129454   0.0019271  )
        20           C   tau(  20) = (   0.0460841   0.4750422   0.0019271  )
        21           C   tau(  21) = (   0.0460841   0.2371390   0.0019271  )
        22           C   tau(  22) = (   0.1205839   0.1181902   0.1536294  )
        23           C   tau(  23) = (   0.1205839   0.3560935   0.1536294  )
        24           C   tau(  24) = (   0.1205839   0.5939967   0.1536294  )
        25           C   tau(  25) = (   0.2127494   0.5939967   0.1536294  )
        26           C   tau(  26) = (   0.2127494   0.3560935   0.1536294  )
        27           C   tau(  27) = (   0.2127494   0.1181902   0.1536294  )
        28           C   tau(  28) = (   0.2872492   0.7129454   0.0019271  )
        29           C   tau(  29) = (   0.3794174   0.7129454   0.0019271  )
        30           C   tau(  30) = (   0.2872492   0.4750422   0.0019271  )
        31           C   tau(  31) = (   0.3794174   0.4750422   0.0019271  )
        32           C   tau(  32) = (   0.2872492   0.2371390   0.0019271  )
        33           C   tau(  33) = (   0.3794174   0.2371390   0.0019271  )
        34           C   tau(  34) = (   0.4539172   0.1181902   0.1536294  )
        35           C   tau(  35) = (   0.5460828   0.1181902   0.1536294  )
        36           C   tau(  36) = (   0.4539172   0.3560935   0.1536294  )
        37           C   tau(  37) = (   0.5460828   0.3560935   0.1536294  )
        38           C   tau(  38) = (   0.4539172   0.5939967   0.1536294  )
        39           C   tau(  39) = (   0.5460828   0.5939967   0.1536294  )
        40           C   tau(  40) = (   0.6205826   0.7129454   0.0019271  )
        41           C   tau(  41) = (   0.7127508   0.7129454   0.0019271  )
        42           C   tau(  42) = (   0.6205826   0.4750422   0.0019271  )
        43           C   tau(  43) = (   0.7127508   0.4750422   0.0019271  )
        44           C   tau(  44) = (   0.6205826   0.2371390   0.0019271  )
        45           C   tau(  45) = (   0.7127508   0.2371390   0.0019271  )
        46           C   tau(  46) = (   0.7872505   0.1181902   0.1536294  )
        47           C   tau(  47) = (   0.8794161   0.1181902   0.1536294  )
        48           C   tau(  48) = (   0.7872505   0.3560935   0.1536294  )
        49           C   tau(  49) = (   0.9539159   0.2371390   0.0019271  )
        50           C   tau(  50) = (   0.9539159   0.4750422   0.0019271  )
        51           C   tau(  51) = (   0.9539159   0.7129454   0.0019271  )
        52           C   tau(  52) = (   0.7872505   0.5939967   0.1536294  )
        53           C   tau(  53) = (   0.8794161   0.5939967   0.1536294  )
        54           C   tau(  54) = (   0.8794161   0.3560935   0.1536294  )

     number of k points=     9  Gaussian smearing, width (Ry)=  0.0100
                       cart. coord. in units 2pi/alat
        k(    1) = (   0.0000000   0.0000000   0.0000000), wk =   0.0800000
        k(    2) = (   0.0000000   0.2802260   0.0000000), wk =   0.1600000
        k(    3) = (   0.0000000   0.5604520   0.0000000), wk =   0.1600000
        k(    4) = (   0.2000000   0.0000000   0.0000000), wk =   0.1600000
        k(    5) = (   0.2000000   0.2802260   0.0000000), wk =   0.3200000
        k(    6) = (   0.2000000   0.5604520   0.0000000), wk =   0.3200000
        k(    7) = (   0.4000000   0.0000000   0.0000000), wk =   0.1600000
        k(    8) = (   0.4000000   0.2802260   0.0000000), wk =   0.3200000
        k(    9) = (   0.4000000   0.5604520   0.0000000), wk =   0.3200000

     Dense  grid:  6482521 G-vectors     FFT dimensions: ( 180, 128, 576)

     Estimated max dynamical RAM per process >       1.95 GB

     Estimated total dynamical RAM >      46.76 GB

     Initial potential from superposition of free atoms

     starting charge  143.99850, renormalised to  378.00000

     negative rho (up, down):  1.291E-04 0.000E+00
     Starting wfcs are  144 randomized atomic wfcs +   83 random wfcs

     total cpu time spent up to now is      331.4 secs

     Self-consistent Calculation

     iteration #  1     ecut=   100.00 Ry     beta= 0.70
     Davidson diagonalization with overlap
     ethr =  1.00E-02,  avg # of iterations = 17.2

     total cpu time spent up to now is     3732.9 secs

     total energy              =   -1530.51904921 Ry
     estimated scf accuracy    <    3814.48328803 Ry

     iteration #  2     ecut=   100.00 Ry     beta= 0.70
     Davidson diagonalization with overlap
     ethr =  1.00E-02,  avg # of iterations = 15.7

     total cpu time spent up to now is     7062.9 secs

     total energy              =   -1468.51040690 Ry
     estimated scf accuracy    <    2371.96705226 Ry

     iteration #  3     ecut=   100.00 Ry     beta= 0.70
     Davidson diagonalization with overlap
     c_bands:  3 eigenvalues not converged
     c_bands:  1 eigenvalues not converged
     c_bands:  2 eigenvalues not converged
     c_bands:  2 eigenvalues not converged
     c_bands:  2 eigenvalues not converged
     c_bands:  1 eigenvalues not converged
     ethr =  1.00E-02,  avg # of iterations = 19.9

     total cpu time spent up to now is    10740.7 secs

     total energy              =   -2485.36254735 Ry
     estimated scf accuracy    <     469.00071436 Ry

     iteration #  4     ecut=   100.00 Ry     beta= 0.70
     Davidson diagonalization with overlap
     ethr =  1.00E-02,  avg # of iterations =  8.2

     total cpu time spent up to now is    12083.1 secs

     total energy              =   -2496.54031869 Ry
     estimated scf accuracy    <      81.47186078 Ry

     iteration #  5     ecut=   100.00 Ry     beta= 0.70
     Davidson diagonalization with overlap
     ethr =  1.00E-02,  avg # of iterations =  2.2

     total cpu time spent up to now is    12906.2 secs

     total energy              =   -2499.30509159 Ry
     estimated scf accuracy    <      89.13039266 Ry

     iteration #  6     ecut=   100.00 Ry     beta= 0.70
     Davidson diagonalization with overlap
     ethr =  1.00E-02,  avg # of iterations =  1.0

     total cpu time spent up to now is    13603.2 secs

     total energy              =   -2487.81648343 Ry
     estimated scf accuracy    <      81.56682972 Ry

     iteration #  7     ecut=   100.00 Ry     beta= 0.70
     Davidson diagonalization with overlap
     ethr =  1.00E-02,  avg # of iterations =  1.0

     total cpu time spent up to now is    14305.9 secs

     total energy              =   -2481.11312161 Ry
     estimated scf accuracy    <      53.97028136 Ry

     iteration #  8     ecut=   100.00 Ry     beta= 0.70
     Davidson diagonalization with overlap
     ethr =  1.00E-02,  avg # of iterations =  1.0

     total cpu time spent up to now is    15004.6 secs

     total energy              =   -2474.13304334 Ry
     estimated scf accuracy    <      40.75645251 Ry

     iteration #  9     ecut=   100.00 Ry     beta= 0.70
     Davidson diagonalization with overlap
     ethr =  1.00E-02,  avg # of iterations =  1.0

     total cpu time spent up to now is    15708.0 secs

     total energy              =   -2472.00167086 Ry
     estimated scf accuracy    <      23.69907531 Ry

     iteration # 10     ecut=   100.00 Ry     beta= 0.70
     Davidson diagonalization with overlap
     ethr =  6.27E-03,  avg # of iterations =  1.1

     total cpu time spent up to now is    16413.4 secs

     total energy              =   -2460.44541044 Ry
     estimated scf accuracy    <      17.67874881 Ry

     iteration # 11     ecut=   100.00 Ry     beta= 0.70
     Davidson diagonalization with overlap
     ethr =  4.68E-03,  avg # of iterations =  5.8

     total cpu time spent up to now is    17368.9 secs

     total energy              =   -2464.50372505 Ry
     estimated scf accuracy    <       2.73879427 Ry

     iteration # 12     ecut=   100.00 Ry     beta= 0.70
     Davidson diagonalization with overlap
     ethr =  7.25E-04,  avg # of iterations = 11.1

     total cpu time spent up to now is    18385.3 secs

     total energy              =   -2464.48984297 Ry
     estimated scf accuracy    <       1.76932711 Ry

     iteration # 13     ecut=   100.00 Ry     beta= 0.70
     Davidson diagonalization with overlap
     ethr =  4.68E-04,  avg # of iterations =  2.2

     total cpu time spent up to now is    19131.6 secs

     total energy              =   -2464.10987705 Ry
     estimated scf accuracy    <       0.88423868 Ry

     iteration # 14     ecut=   100.00 Ry     beta= 0.70
     Davidson diagonalization with overlap
     ethr =  2.34E-04,  avg # of iterations =  9.4

     negative rho (up, down):  1.370E-08 0.000E+00

     total cpu time spent up to now is    20282.0 secs

     total energy              =   -2464.40382039 Ry
     estimated scf accuracy    <       0.70030297 Ry

     iteration # 15     ecut=   100.00 Ry     beta= 0.70
     Davidson diagonalization with overlap
     ethr =  1.85E-04,  avg # of iterations =  2.6

     negative rho (up, down):  4.709E-07 0.000E+00

     total cpu time spent up to now is    21034.0 secs

     total energy              =   -2464.40613151 Ry
     estimated scf accuracy    <       0.34099801 Ry

     iteration # 16     ecut=   100.00 Ry     beta= 0.70
     Davidson diagonalization with overlap
     ethr =  9.02E-05,  avg # of iterations =  4.9

     total cpu time spent up to now is    21827.5 secs

     total energy              =   -2464.41697698 Ry
     estimated scf accuracy    <       0.10335770 Ry

     iteration # 17     ecut=   100.00 Ry     beta= 0.70
     Davidson diagonalization with overlap
     c_bands:  1 eigenvalues not converged
     c_bands:  1 eigenvalues not converged
     ethr =  2.73E-05,  avg # of iterations = 16.3

     total cpu time spent up to now is    22955.4 secs

     total energy              =   -2464.42322644 Ry
     estimated scf accuracy    <       0.02198402 Ry

     iteration # 18     ecut=   100.00 Ry     beta= 0.70
     Davidson diagonalization with overlap
     c_bands:  3 eigenvalues not converged
     c_bands:  1 eigenvalues not converged
     c_bands:  1 eigenvalues not converged
     c_bands:  1 eigenvalues not converged
     c_bands:  2 eigenvalues not converged
     c_bands:  2 eigenvalues not converged
     c_bands:  1 eigenvalues not converged
     ethr =  5.82E-06,  avg # of iterations = 18.2

     total cpu time spent up to now is    24176.7 secs

     total energy              =   -2464.42498079 Ry
     estimated scf accuracy    <       0.02550887 Ry

     iteration # 19     ecut=   100.00 Ry     beta= 0.70
     Davidson diagonalization with overlap
     c_bands:  2 eigenvalues not converged
     c_bands:  1 eigenvalues not converged
     c_bands:  1 eigenvalues not converged
     ethr =  5.82E-06,  avg # of iterations =  9.0

     total cpu time spent up to now is    24998.7 secs

     total energy              =   -2464.42605805 Ry
     estimated scf accuracy    <       0.02100403 Ry

     iteration # 20     ecut=   100.00 Ry     beta= 0.70
     Davidson diagonalization with overlap
     ethr =  5.56E-06,  avg # of iterations =  3.7

     total cpu time spent up to now is    25744.1 secs

     total energy              =   -2464.42745854 Ry
     estimated scf accuracy    <       0.00286196 Ry

     iteration # 21     ecut=   100.00 Ry     beta= 0.70
     Davidson diagonalization with overlap
     c_bands:  1 eigenvalues not converged
     c_bands:  1 eigenvalues not converged
     c_bands:  1 eigenvalues not converged
     ethr =  7.57E-07,  avg # of iterations =  9.7

     total cpu time spent up to now is    26622.3 secs

     total energy              =   -2464.42778587 Ry
     estimated scf accuracy    <       0.00180991 Ry

     iteration # 22     ecut=   100.00 Ry     beta= 0.70
     Davidson diagonalization with overlap
     ethr =  4.79E-07,  avg # of iterations =  2.0

     total cpu time spent up to now is    27368.0 secs

     total energy              =   -2464.42791082 Ry
     estimated scf accuracy    <       0.00045851 Ry

     iteration # 23     ecut=   100.00 Ry     beta= 0.70
     Davidson diagonalization with overlap
     ethr =  1.21E-07,  avg # of iterations =  3.8

     total cpu time spent up to now is    28171.6 secs

     total energy              =   -2464.42795255 Ry
     estimated scf accuracy    <       0.00015142 Ry

     iteration # 24     ecut=   100.00 Ry     beta= 0.70
     Davidson diagonalization with overlap
     ethr =  4.01E-08,  avg # of iterations =  5.2

     total cpu time spent up to now is    29006.4 secs

     total energy              =   -2464.42796344 Ry
     estimated scf accuracy    <       0.00006372 Ry

     iteration # 25     ecut=   100.00 Ry     beta= 0.70
     Davidson diagonalization with overlap
     ethr =  1.69E-08,  avg # of iterations =  4.4

     total cpu time spent up to now is    29797.4 secs

     total energy              =   -2464.42796548 Ry
     estimated scf accuracy    <       0.00002860 Ry

     iteration # 26     ecut=   100.00 Ry     beta= 0.70
     Davidson diagonalization with overlap
     c_bands:  3 eigenvalues not converged
     ethr =  7.56E-09,  avg # of iterations =  7.6

     negative rho (up, down):  2.041E-05 0.000E+00

     total cpu time spent up to now is    30767.6 secs

     total energy              =   -2464.42795576 Ry
     estimated scf accuracy    <       0.00014662 Ry

     iteration # 27     ecut=   100.00 Ry     beta= 0.70
     Davidson diagonalization with overlap
     ethr =  7.56E-09,  avg # of iterations =  6.6

     total cpu time spent up to now is    31748.1 secs

     total energy              =   -2464.42796621 Ry
     estimated scf accuracy    <       0.00005374 Ry

     iteration # 28     ecut=   100.00 Ry     beta= 0.70
     Davidson diagonalization with overlap
     ethr =  7.56E-09,  avg # of iterations =  3.9

     total cpu time spent up to now is    32591.1 secs

     total energy              =   -2464.42796928 Ry
     estimated scf accuracy    <       0.00002677 Ry

     iteration # 29     ecut=   100.00 Ry     beta= 0.70
     Davidson diagonalization with overlap
     ethr =  7.08E-09,  avg # of iterations =  2.0

     total cpu time spent up to now is    33332.3 secs

     total energy              =   -2464.42796937 Ry
     estimated scf accuracy    <       0.00004317 Ry

     iteration # 30     ecut=   100.00 Ry     beta= 0.70
     Davidson diagonalization with overlap
     ethr =  7.08E-09,  avg # of iterations =  1.7

     total cpu time spent up to now is    34057.0 secs

     total energy              =   -2464.42797145 Ry
     estimated scf accuracy    <       0.00000676 Ry

     iteration # 31     ecut=   100.00 Ry     beta= 0.70
     Davidson diagonalization with overlap
     ethr =  1.79E-09,  avg # of iterations =  2.3

     total cpu time spent up to now is    34824.8 secs

     total energy              =   -2464.42797207 Ry
     estimated scf accuracy    <       0.00000096 Ry

     iteration # 32     ecut=   100.00 Ry     beta= 0.70
     Davidson diagonalization with overlap
     ethr =  2.53E-10,  avg # of iterations =  6.0

     total cpu time spent up to now is    35784.0 secs

     total energy              =   -2464.42797219 Ry
     estimated scf accuracy    <       0.00000135 Ry

     iteration # 33     ecut=   100.00 Ry     beta= 0.70
     Davidson diagonalization with overlap
     ethr =  2.53E-10,  avg # of iterations =  2.6

     total cpu time spent up to now is    36562.0 secs

     total energy              =   -2464.42797230 Ry
     estimated scf accuracy    <       0.00000015 Ry

     iteration # 34     ecut=   100.00 Ry     beta= 0.70
     Davidson diagonalization with overlap
     ethr =  3.92E-11,  avg # of iterations =  6.0

     total cpu time spent up to now is    37610.2 secs

     total energy              =   -2464.42797228 Ry
     estimated scf accuracy    <       0.00000053 Ry

     iteration # 35     ecut=   100.00 Ry     beta= 0.70
     Davidson diagonalization with overlap
     ethr =  3.92E-11,  avg # of iterations =  5.8

     total cpu time spent up to now is    38576.5 secs

     total energy              =   -2464.42797233 Ry
     estimated scf accuracy    <       0.00000019 Ry

     iteration # 36     ecut=   100.00 Ry     beta= 0.70
     Davidson diagonalization with overlap
     ethr =  3.92E-11,  avg # of iterations =  2.8

     total cpu time spent up to now is    39351.5 secs

     total energy              =   -2464.42797234 Ry
     estimated scf accuracy    <       0.00000007 Ry

     iteration # 37     ecut=   100.00 Ry     beta= 0.70
     Davidson diagonalization with overlap
     ethr =  1.95E-11,  avg # of iterations =  6.0

     total cpu time spent up to now is    40203.5 secs

     total energy              =   -2464.42797234 Ry
     estimated scf accuracy    <       0.00000011 Ry

     iteration # 38     ecut=   100.00 Ry     beta= 0.70
     Davidson diagonalization with overlap
     ethr =  1.95E-11,  avg # of iterations =  2.1

     total cpu time spent up to now is    40948.8 secs

     End of self-consistent calculation

          k = 0.0000 0.0000 0.0000 (810009 PWs)   bands (ev):

   -60.7003 -60.6746 -60.6746 -60.6679 -60.6679 -60.6550 -60.6550 -60.6550
   -60.6550 -60.6291 -60.6291 -60.6291 -60.6291 -60.6229 -60.6228 -60.6162
   -60.6162 -60.5968 -36.0122 -36.0122 -36.0122 -36.0122 -35.9228 -35.9142
   -35.9141 -35.9141 -35.9141 -35.8948 -35.8948 -35.8256 -35.7649 -35.7649
   -35.7527 -35.7527 -35.7494 -35.7494 -35.7336 -35.7336 -35.7182 -35.6611
   -35.6611 -35.6583 -35.6583 -35.6384 -35.6384 -35.6384 -35.6384 -35.6080
   -35.6080 -35.6036 -35.6036 -35.5988 -35.5987 -35.5987 -35.5987 -35.5790
   -35.5790 -35.5617 -35.5275 -35.4823 -35.4823 -35.4823 -35.4823 -35.3691
   -35.3690 -35.3616 -35.3616 -35.3213 -35.3213 -35.3213 -35.3213 -35.1798
   -18.8757 -18.6565 -18.6565 -18.4880 -18.4880 -18.4612 -18.4557 -18.4557
   -18.3566 -18.3566 -18.3566 -18.3566 -18.3020 -18.3019 -18.2657 -18.2657
   -18.2657 -18.2657 -11.6987 -11.6987 -11.6987 -11.6987 -11.5896 -11.5896
   -11.3677 -11.3536 -11.3536 -11.3536 -11.3536 -11.0588 -11.0587 -10.8864
   -10.8864 -10.4523 -10.4522 -10.1035 -10.0659  -9.7271  -9.7270  -9.1949
    -9.0132  -9.0131  -8.8127  -8.8127  -8.8127  -8.8127  -8.8040  -8.8026
    -8.8026  -8.7007  -8.7007  -8.6431  -8.6431  -8.5634  -8.5634  -8.2412
    -8.2412  -8.2301  -8.2301  -8.2301  -8.2300  -8.2091  -8.2091  -8.2090
    -8.2090  -8.1608  -8.1608  -8.1265  -8.0231  -8.0230  -7.8083  -7.8083
    -7.8083  -7.8083  -7.7670  -7.6275  -7.6275  -7.5713  -7.5712  -7.5712
    -7.5712  -7.5139  -7.5139  -7.5139  -7.5139  -7.2375  -7.2159  -7.2159
    -7.1943  -7.1461  -7.1461  -7.0125  -7.0125  -6.1685  -6.1685  -6.1685
    -6.1685  -6.0850  -6.0850  -5.2383  -5.2383  -4.9458  -4.9458  -4.9458
    -4.9458  -4.8403  -4.8403  -4.8403  -4.8403  -4.2224  -4.2224  -4.2095
    -4.2095  -4.0259  -4.0259  -4.0259  -4.0259  -3.8514  -3.8514  -3.5665
    -3.5665  -2.7886  -2.6447  -2.6447  -2.4004  -2.3499  -2.3419  -2.3419
    -2.3047  -2.3047  -2.2494  -2.2494  -2.2494  -2.2494  -2.0794  -2.0794
    -1.8721  -1.8720  -1.8720  -1.8720  -1.6879  -1.6879  -1.2168  -1.2168
    -1.1063  -1.1010  -1.0679  -1.0048  -1.0048  -0.9354  -0.9327  -0.9216
    -0.8529  -0.8529  -0.8526

          k = 0.0000 0.2802 0.0000 (810402 PWs)   bands (ev):

   -60.6988 -60.6784 -60.6737 -60.6736 -60.6612 -60.6611 -60.6567 -60.6487
   -60.6487 -60.6327 -60.6326 -60.6265 -60.6265 -60.6247 -60.6230 -60.6230
   -60.6091 -60.5975 -36.0321 -36.0321 -35.9762 -35.9762 -35.9720 -35.9720
   -35.9145 -35.8953 -35.8830 -35.8438 -35.8438 -35.8311 -35.8161 -35.8161
   -35.8056 -35.7974 -35.7149 -35.7072 -35.7072 -35.6880 -35.6763 -35.6619
   -35.6549 -35.6549 -35.6499 -35.6499 -35.6398 -35.6368 -35.6368 -35.6273
   -35.6273 -35.6029 -35.6029 -35.5975 -35.5974 -35.5964 -35.5964 -35.5909
   -35.5696 -35.5647 -35.5369 -35.5303 -35.5303 -35.4373 -35.4373 -35.4318
   -35.3591 -35.3591 -35.3373 -35.3373 -35.3164 -35.3164 -35.2997 -35.1877
   -18.8535 -18.6389 -18.6389 -18.5924 -18.4502 -18.4434 -18.4434 -18.4353
   -18.4353 -18.3988 -18.3354 -18.3099 -18.3099 -18.2922 -18.2922 -18.2868
   -18.2374 -18.2374 -11.6901 -11.6901 -11.6831 -11.6831 -11.5982 -11.5982
   -11.4771 -11.4771 -11.3529 -11.2201 -11.2200 -11.1575 -10.9504 -10.9117
   -10.9117 -10.5817 -10.3293 -10.0875 -10.0842  -9.8703  -9.5326  -9.1496
    -9.0036  -9.0036  -8.9073  -8.9072  -8.8253  -8.7919  -8.7499  -8.7499
    -8.7209  -8.6918  -8.6918  -8.6866  -8.6866  -8.6712  -8.3802  -8.3483
    -8.3483  -8.3009  -8.3009  -8.1967  -8.1967  -8.1951  -8.1951  -8.1615
    -8.1614  -8.0820  -8.0820  -8.0608  -8.0404  -8.0404  -8.0197  -8.0014
    -7.7978  -7.7978  -7.7880  -7.7484  -7.7484  -7.6456  -7.6456  -7.6292
    -7.6292  -7.4488  -7.3321  -7.3320  -7.2869  -7.2869  -7.2456  -7.2274
    -7.2101  -7.0979  -7.0169  -6.9522  -6.9144  -6.2637  -6.2636  -6.1351
    -6.1350  -6.0150  -6.0149  -5.7872  -5.2317  -5.2317  -4.9065  -4.9065
    -4.8824  -4.8824  -4.6403  -4.4307  -4.4307  -4.3373  -4.3373  -4.3069
    -4.3069  -4.1171  -4.1171  -3.8398  -3.8194  -3.8194  -3.6203  -3.5759
    -3.5759  -2.9763  -2.9532  -2.4422  -2.4373  -2.3520  -2.3424  -2.3092
    -2.3092  -2.2063  -2.2063  -2.1991  -2.0748  -2.0468  -2.0468  -1.9957
    -1.8752  -1.8752  -1.8567  -1.8567  -1.6994  -1.6994  -1.5975  -1.4690
    -1.4547  -1.4216  -1.1355  -1.0932  -1.0932  -1.0612  -1.0612  -1.0539
    -0.9668  -0.8862  -0.8860

          k = 0.0000 0.5605 0.0000 (810594 PWs)   bands (ev):

   -60.6944 -60.6874 -60.6709 -60.6709 -60.6666 -60.6666 -60.6454 -60.6427
   -60.6426 -60.6372 -60.6372 -60.6346 -60.6247 -60.6247 -60.6236 -60.6236
   -60.6037 -60.5998 -36.0327 -36.0327 -36.0125 -36.0125 -35.9285 -35.9285
   -35.8900 -35.8811 -35.8737 -35.8737 -35.8647 -35.8508 -35.8503 -35.8456
   -35.7678 -35.7677 -35.7059 -35.6949 -35.6948 -35.6925 -35.6758 -35.6757
   -35.6615 -35.6615 -35.6294 -35.6266 -35.6266 -35.6218 -35.6174 -35.6173
   -35.6091 -35.6091 -35.6053 -35.5958 -35.5957 -35.5956 -35.5955 -35.5853
   -35.5836 -35.5798 -35.5798 -35.5620 -35.5536 -35.5075 -35.3970 -35.3970
   -35.3631 -35.3631 -35.3392 -35.3392 -35.3229 -35.3229 -35.2489 -35.2110
   -18.7908 -18.6987 -18.5894 -18.5893 -18.5173 -18.5172 -18.4200 -18.4094
   -18.4093 -18.3783 -18.3614 -18.3614 -18.3335 -18.2961 -18.2492 -18.2491
   -18.2309 -18.2309 -11.6534 -11.6534 -11.6507 -11.6507 -11.6216 -11.6216
   -11.5787 -11.5787 -11.3101 -11.2431 -11.0913 -11.0913 -10.9835 -10.9835
   -10.8339 -10.7104 -10.2216 -10.1376 -10.0423  -9.9713  -9.2928  -9.0316
    -9.0214  -8.9876  -8.9876  -8.9629  -8.9629  -8.8495  -8.8385  -8.8210
    -8.6298  -8.6298  -8.5955  -8.5955  -8.5450  -8.5450  -8.5003  -8.5003
    -8.4095  -8.4095  -8.3545  -8.3545  -8.2067  -8.1668  -8.1668  -8.1635
    -8.1634  -8.0847  -8.0847  -8.0775  -7.9637  -7.9637  -7.9384  -7.9384
    -7.9258  -7.8977  -7.8639  -7.8639  -7.8455  -7.6842  -7.6422  -7.6422
    -7.6344  -7.6344  -7.2688  -7.2452  -7.2000  -7.1607  -7.1607  -7.1579
    -7.1481  -7.1481  -6.8883  -6.8566  -6.6575  -6.2855  -6.2855  -6.2656
    -6.2301  -6.2301  -5.8099  -5.8099  -5.5506  -5.5506  -4.7870  -4.7870
    -4.7500  -4.7500  -4.5778  -4.5778  -4.5548  -4.5548  -4.0295  -4.0295
    -4.0239  -3.9211  -3.9211  -3.7821  -3.7821  -3.7189  -3.7189  -3.6021
    -3.4388  -3.2678  -3.2135  -2.7569  -2.4094  -2.2142  -2.1893  -2.1893
    -2.1749  -2.1398  -2.0370  -1.9716  -1.9654  -1.9654  -1.9536  -1.9536
    -1.8413  -1.8377  -1.8377  -1.8247  -1.8070  -1.8070  -1.7676  -1.7409
    -1.7409  -1.6402  -1.3747  -1.3747  -1.2933  -1.2933  -1.1946  -1.1642
    -1.1214  -1.1203  -1.0492

          k = 0.2000 0.0000 0.0000 (810173 PWs)   bands (ev):

   -60.6992 -60.6833 -60.6674 -60.6674 -60.6648 -60.6594 -60.6594 -60.6500
   -60.6500 -60.6340 -60.6340 -60.6328 -60.6247 -60.6247 -60.6167 -60.6167
   -60.6140 -60.5979 -36.0139 -36.0139 -35.9990 -35.9990 -35.9524 -35.9524
   -35.9157 -35.9113 -35.9113 -35.8712 -35.8711 -35.8224 -35.8162 -35.7775
   -35.7598 -35.7598 -35.7245 -35.7161 -35.7152 -35.7113 -35.7113 -35.6833
   -35.6574 -35.6574 -35.6451 -35.6451 -35.6324 -35.6308 -35.6308 -35.6272
   -35.6268 -35.6063 -35.6063 -35.5921 -35.5921 -35.5920 -35.5799 -35.5799
   -35.5780 -35.5637 -35.5404 -35.5404 -35.5308 -35.4381 -35.4302 -35.4302
   -35.3565 -35.3565 -35.3315 -35.3315 -35.3218 -35.3218 -35.3063 -35.1883
   -18.8644 -18.7217 -18.5940 -18.4812 -18.4811 -18.4707 -18.4597 -18.4506
   -18.3950 -18.3950 -18.3212 -18.3211 -18.2994 -18.2994 -18.2726 -18.2725
   -18.2652 -18.2652 -11.7531 -11.7531 -11.5888 -11.5888 -11.5864 -11.5423
   -11.5379 -11.5379 -11.3984 -11.1335 -11.1335 -11.1204 -11.1204 -11.1036
   -10.6586 -10.5150 -10.5149 -10.1159 -10.0360  -9.6552  -9.6552  -9.3124
    -9.1668  -9.0271  -9.0271  -8.9029  -8.8039  -8.7542  -8.7506  -8.7093
    -8.6245  -8.6221  -8.6220  -8.5917  -8.5917  -8.5476  -8.5476  -8.3230
    -8.3230  -8.2892  -8.2681  -8.2680  -8.2535  -8.2333  -8.2333  -8.2055
    -8.1315  -8.0988  -8.0987  -8.0373  -8.0253  -8.0252  -7.9284  -7.9283
    -7.8056  -7.8056  -7.7877  -7.7861  -7.5898  -7.5898  -7.5229  -7.5229
    -7.4974  -7.4817  -7.4817  -7.4389  -7.4388  -7.2875  -7.2875  -7.2562
    -7.1442  -7.0503  -7.0503  -7.0432  -7.0432  -6.4578  -6.4194  -6.4194
    -5.9322  -5.9322  -5.6561  -5.2526  -5.2526  -5.2166  -5.2166  -4.9675
    -4.9675  -4.7363  -4.7362  -4.5647  -4.5647  -4.4618  -4.4554  -4.2887
    -4.2887  -4.1239  -3.9091  -3.8681  -3.8429  -3.8429  -3.7047  -3.7047
    -3.0073  -2.9695  -2.7495  -2.7495  -2.6422  -2.6421  -2.5943  -2.5028
    -2.5028  -2.3066  -2.2264  -2.1306  -2.1070  -2.1070  -1.9933  -1.9933
    -1.8286  -1.7363  -1.7362  -1.7142  -1.7142  -1.5461  -1.5047  -1.4558
    -1.2767  -1.2767  -1.1545  -0.9774  -0.9356  -0.9356  -0.8661  -0.8661
    -0.8070  -0.8068  -0.7976

          k = 0.2000 0.2802 0.0000 (810351 PWs)   bands (ev):

   -60.6977 -60.6822 -60.6776 -60.6670 -60.6640 -60.6563 -60.6545 -60.6514
   -60.6456 -60.6357 -60.6331 -60.6327 -60.6299 -60.6250 -60.6206 -60.6144
   -60.6099 -60.5987 -36.0429 -36.0102 -36.0052 -35.9728 -35.9683 -35.9319
   -35.9101 -35.9099 -35.9028 -35.8852 -35.8481 -35.8255 -35.8173 -35.8000
   -35.7809 -35.7701 -35.7457 -35.7129 -35.6969 -35.6806 -35.6767 -35.6751
   -35.6700 -35.6591 -35.6432 -35.6397 -35.6391 -35.6315 -35.6226 -35.6151
   -35.6112 -35.6086 -35.6075 -35.6066 -35.5988 -35.5922 -35.5914 -35.5874
   -35.5807 -35.5707 -35.5670 -35.5404 -35.4883 -35.4720 -35.4232 -35.4222
   -35.3943 -35.3524 -35.3410 -35.3330 -35.3021 -35.3018 -35.2984 -35.1954
   -18.8425 -18.7027 -18.5843 -18.5777 -18.4817 -18.4577 -18.4487 -18.4388
   -18.3931 -18.3916 -18.3333 -18.3228 -18.3146 -18.3127 -18.2837 -18.2649
   -18.2490 -18.2312 -11.7754 -11.7070 -11.6426 -11.6039 -11.5891 -11.5563
   -11.5501 -11.4184 -11.3854 -11.2692 -11.2114 -11.1280 -11.0172 -10.9930
   -10.6833 -10.6477 -10.3883 -10.1348 -10.0197  -9.7987  -9.4630  -9.2991
    -9.1412  -9.1208  -8.8760  -8.8508  -8.8235  -8.7543  -8.7424  -8.7387
    -8.7063  -8.6980  -8.6569  -8.6252  -8.6070  -8.5241  -8.4814  -8.3650
    -8.3583  -8.2878  -8.2866  -8.2727  -8.2162  -8.1990  -8.1856  -8.1662
    -8.1535  -8.1353  -8.0669  -8.0427  -8.0129  -8.0117  -8.0114  -7.9343
    -7.8479  -7.8278  -7.8059  -7.7978  -7.7881  -7.7865  -7.6883  -7.4986
    -7.4952  -7.4874  -7.2924  -7.2893  -7.2819  -7.2629  -7.2474  -7.1751
    -7.1612  -7.1306  -7.0992  -6.9555  -6.8399  -6.5407  -6.4923  -6.2392
    -5.9922  -5.8108  -5.7472  -5.7368  -5.3726  -5.2171  -5.2122  -5.0853
    -4.6510  -4.6393  -4.5810  -4.5688  -4.5666  -4.4201  -4.3656  -4.3405
    -4.0602  -3.9879  -3.9834  -3.9798  -3.8555  -3.7874  -3.5954  -3.5017
    -3.1964  -3.1130  -3.0539  -2.6275  -2.5898  -2.5335  -2.5253  -2.4727
    -2.2934  -2.2553  -2.1946  -2.1701  -2.0785  -1.9978  -1.9823  -1.9759
    -1.9744  -1.8405  -1.7632  -1.7351  -1.7033  -1.6375  -1.5903  -1.5574
    -1.3976  -1.2118  -1.2081  -1.1778  -1.1157  -1.0876  -1.0119  -0.9766
    -0.9632  -0.9592  -0.8266

          k = 0.2000 0.5605 0.0000 (810447 PWs)   bands (ev):

   -60.6934 -60.6865 -60.6789 -60.6737 -60.6619 -60.6586 -60.6453 -60.6436
   -60.6416 -60.6382 -60.6363 -60.6347 -60.6327 -60.6327 -60.6176 -60.6156
   -60.6046 -60.6009 -36.0519 -36.0392 -36.0034 -35.9771 -35.9360 -35.9107
   -35.8970 -35.8947 -35.8934 -35.8930 -35.8635 -35.8465 -35.8288 -35.8128
   -35.8101 -35.7347 -35.7258 -35.7041 -35.7024 -35.6910 -35.6740 -35.6710
   -35.6588 -35.6579 -35.6487 -35.6405 -35.6364 -35.6216 -35.6188 -35.6157
   -35.6106 -35.6105 -35.6081 -35.6078 -35.6054 -35.5883 -35.5844 -35.5825
   -35.5699 -35.5681 -35.5635 -35.5559 -35.5188 -35.4954 -35.4380 -35.3919
   -35.3905 -35.3654 -35.3612 -35.3446 -35.2948 -35.2932 -35.2511 -35.2164
   -18.7805 -18.6894 -18.6492 -18.5711 -18.5322 -18.4661 -18.4217 -18.4184
   -18.4063 -18.3765 -18.3704 -18.3609 -18.3288 -18.2924 -18.2726 -18.2480
   -18.2295 -18.2183 -11.7657 -11.7208 -11.6496 -11.6035 -11.5961 -11.5950
   -11.4835 -11.3886 -11.3475 -11.2991 -11.2882 -11.1970 -10.9029 -10.8616
   -10.7788 -10.7540 -10.2770 -10.1900  -9.9733  -9.9009  -9.2658  -9.2281
    -9.2170  -8.9900  -8.9732  -8.8434  -8.8100  -8.8015  -8.7462  -8.7396
    -8.7219  -8.7001  -8.6986  -8.6252  -8.5197  -8.5059  -8.5043  -8.4616
    -8.4226  -8.3427  -8.3384  -8.3050  -8.2811  -8.2250  -8.1926  -8.1287
    -8.0912  -8.0648  -8.0597  -8.0284  -8.0197  -8.0027  -7.9384  -7.9339
    -7.9073  -7.9021  -7.8704  -7.8701  -7.8608  -7.7855  -7.7848  -7.7026
    -7.5036  -7.5016  -7.2230  -7.2165  -7.1973  -7.1853  -7.1578  -7.1544
    -7.1131  -7.1057  -6.9492  -6.9022  -6.5872  -6.5720  -6.5581  -6.2062
    -6.0076  -5.9775  -5.8813  -5.7204  -5.6329  -5.3969  -5.1021  -5.0695
    -4.9074  -4.8567  -4.4584  -4.3636  -4.2524  -4.1681  -4.1228  -4.0529
    -4.0504  -4.0013  -3.9946  -3.9034  -3.6538  -3.6070  -3.5634  -3.5085
    -3.4695  -3.3557  -3.1689  -2.6573  -2.4969  -2.4778  -2.3967  -2.3372
    -2.3311  -2.3002  -2.1530  -2.1164  -2.0818  -2.0219  -1.9795  -1.9559
    -1.9524  -1.9363  -1.8801  -1.7223  -1.7049  -1.6599  -1.5974  -1.5742
    -1.4839  -1.4263  -1.3735  -1.3043  -1.2692  -1.2548  -1.2495  -1.2341
    -1.2328  -1.0693  -0.8949

          k = 0.4000 0.0000 0.0000 (810298 PWs)   bands (ev):

   -60.6958 -60.6905 -60.6657 -60.6657 -60.6630 -60.6630 -60.6542 -60.6448
   -60.6448 -60.6434 -60.6393 -60.6393 -60.6211 -60.6211 -60.6184 -60.6184
   -60.6068 -60.6013 -36.0039 -36.0039 -35.9830 -35.9830 -35.9754 -35.9754
   -35.9439 -35.9439 -35.8946 -35.8607 -35.8274 -35.8274 -35.8131 -35.7979
   -35.7880 -35.7880 -35.7097 -35.6989 -35.6942 -35.6767 -35.6631 -35.6617
   -35.6617 -35.6543 -35.6543 -35.6508 -35.6508 -35.6490 -35.6227 -35.6227
   -35.6144 -35.6144 -35.6015 -35.6015 -35.5866 -35.5866 -35.5824 -35.5824
   -35.5791 -35.5750 -35.5695 -35.5567 -35.5407 -35.5088 -35.3866 -35.3866
   -35.3534 -35.3534 -35.3442 -35.3442 -35.3307 -35.3307 -35.2534 -35.2133
   -18.8321 -18.7827 -18.5401 -18.4985 -18.4615 -18.4615 -18.4559 -18.4518
   -18.4315 -18.4315 -18.2927 -18.2927 -18.2924 -18.2924 -18.2825 -18.2825
   -18.2739 -18.2738 -11.7445 -11.7444 -11.6714 -11.6714 -11.5408 -11.4688
   -11.4424 -11.4370 -11.4370 -11.2934 -11.2672 -11.2672 -10.8990 -10.8990
   -10.6793 -10.6793 -10.4393 -10.2500  -9.8557  -9.6032  -9.4777  -9.4777
    -9.2554  -9.2553  -9.0958  -9.0032  -8.8003  -8.7861  -8.6353  -8.6188
    -8.5277  -8.5005  -8.5005  -8.4627  -8.4627  -8.4625  -8.4625  -8.4239
    -8.4239  -8.4139  -8.3432  -8.3432  -8.3162  -8.3161  -8.1718  -8.1666
    -8.1467  -8.0277  -8.0276  -8.0105  -8.0105  -8.0011  -8.0011  -7.9787
    -7.9278  -7.9047  -7.9047  -7.8415  -7.5371  -7.5370  -7.5200  -7.5199
    -7.4305  -7.4305  -7.3918  -7.3654  -7.3654  -7.3097  -7.2892  -7.2891
    -7.1514  -7.1514  -6.9981  -6.8734  -6.8733  -6.7656  -6.6614  -6.6614
    -5.7193  -5.7193  -5.5063  -5.5062  -5.1799  -5.1571  -5.1571  -5.0705
    -5.0705  -4.6657  -4.6209  -4.6209  -4.5892  -4.5866  -4.4820  -4.4820
    -4.1921  -4.1921  -3.9153  -3.9153  -3.5730  -3.4552  -3.3537  -3.3537
    -3.2568  -3.0143  -3.0143  -3.0061  -2.8519  -2.8519  -2.7585  -2.7585
    -2.4607  -2.1889  -2.1066  -2.0750  -2.0750  -2.0583  -2.0583  -1.9695
    -1.9401  -1.9322  -1.7250  -1.5470  -1.5469  -1.4025  -1.3957  -1.3957
    -1.3387  -1.3259  -1.3259  -1.2649  -1.0127  -1.0127  -0.8275  -0.8273
    -0.7414  -0.7409  -0.6787

          k = 0.4000 0.2802 0.0000 (810351 PWs)   bands (ev):

   -60.6944 -60.6892 -60.6754 -60.6718 -60.6553 -60.6537 -60.6536 -60.6474
   -60.6431 -60.6423 -60.6402 -60.6390 -60.6277 -60.6261 -60.6158 -60.6121
   -60.6073 -60.6020 -36.0419 -36.0290 -35.9793 -35.9583 -35.9496 -35.9432
   -35.9337 -35.9213 -35.8965 -35.8888 -35.8754 -35.8480 -35.8089 -35.7816
   -35.7577 -35.7437 -35.7217 -35.7169 -35.7068 -35.7063 -35.6964 -35.6714
   -35.6678 -35.6540 -35.6539 -35.6376 -35.6350 -35.6339 -35.6287 -35.6176
   -35.6175 -35.6125 -35.5984 -35.5955 -35.5930 -35.5876 -35.5799 -35.5743
   -35.5742 -35.5646 -35.5527 -35.5502 -35.5437 -35.4880 -35.4199 -35.4015
   -35.3757 -35.3754 -35.3617 -35.3410 -35.2958 -35.2958 -35.2542 -35.2179
   -18.8108 -18.7623 -18.5610 -18.5254 -18.5251 -18.4846 -18.4447 -18.4405
   -18.3769 -18.3553 -18.3524 -18.3294 -18.3275 -18.3197 -18.2751 -18.2626
   -18.2444 -18.2330 -11.7970 -11.7519 -11.6700 -11.5720 -11.5376 -11.4818
   -11.4610 -11.4601 -11.3711 -11.3384 -11.3155 -11.1789 -11.0395 -10.8179
   -10.7587 -10.5449 -10.4623 -10.2707  -9.8390  -9.6182  -9.5874  -9.3860
    -9.2928  -9.0842  -9.0478  -8.9528  -8.8151  -8.7941  -8.6619  -8.6095
    -8.5870  -8.5840  -8.5808  -8.5255  -8.5200  -8.5056  -8.4660  -8.4147
    -8.3967  -8.3777  -8.3484  -8.3205  -8.3161  -8.2511  -8.1457  -8.1146
    -8.0851  -8.0835  -8.0524  -8.0406  -7.9833  -7.9707  -7.9564  -7.9391
    -7.9274  -7.9194  -7.8951  -7.8720  -7.8579  -7.8352  -7.6223  -7.5540
    -7.3900  -7.3484  -7.3041  -7.2452  -7.2422  -7.2352  -7.2205  -7.1829
    -7.1818  -7.0578  -7.0183  -7.0150  -6.7983  -6.7912  -6.6679  -6.4635
    -5.7411  -5.6458  -5.6298  -5.5143  -5.4953  -5.4429  -5.3266  -4.9573
    -4.9517  -4.7922  -4.6260  -4.5897  -4.4197  -4.3013  -4.3009  -4.2247
    -4.2135  -4.0370  -3.9631  -3.6860  -3.6431  -3.6380  -3.3821  -3.3530
    -3.3088  -3.1369  -2.9394  -2.8496  -2.7874  -2.7808  -2.7698  -2.7261
    -2.6003  -2.4515  -2.1157  -2.1044  -2.0760  -2.0361  -2.0245  -1.9787
    -1.8946  -1.7858  -1.6239  -1.5830  -1.5375  -1.4953  -1.4354  -1.4155
    -1.3890  -1.3729  -1.3565  -1.3036  -1.2820  -1.1951  -1.1801  -0.9293
    -0.9063  -0.8325  -0.6375

          k = 0.4000 0.5605 0.0000 (810398 PWs)   bands (ev):

   -60.6903 -60.6854 -60.6838 -60.6795 -60.6522 -60.6501 -60.6449 -60.6443
   -60.6424 -60.6413 -60.6405 -60.6393 -60.6356 -60.6350 -60.6117 -60.6089
   -60.6073 -60.6040 -36.0597 -36.0553 -35.9668 -35.9363 -35.9327 -35.9277
   -35.9183 -35.9042 -35.9033 -35.8957 -35.8839 -35.8496 -35.8129 -35.7929
   -35.7749 -35.7618 -35.7481 -35.7065 -35.6987 -35.6892 -35.6875 -35.6865
   -35.6779 -35.6566 -35.6425 -35.6353 -35.6264 -35.6263 -35.6215 -35.6210
   -35.6201 -35.6140 -35.6123 -35.6067 -35.6059 -35.6026 -35.5751 -35.5712
   -35.5680 -35.5621 -35.5319 -35.5072 -35.4848 -35.4651 -35.4607 -35.4472
   -35.4277 -35.4076 -35.3455 -35.3385 -35.2719 -35.2589 -35.2584 -35.2326
   -18.7508 -18.7052 -18.6626 -18.6215 -18.4831 -18.4459 -18.4227 -18.4141
   -18.4091 -18.3905 -18.3716 -18.3654 -18.3157 -18.2960 -18.2818 -18.2661
   -18.2169 -18.2131 -11.8179 -11.8027 -11.5875 -11.5279 -11.5129 -11.5104
   -11.4685 -11.4347 -11.3939 -11.3777 -11.2817 -11.1697 -11.0731 -10.9514
   -10.6310 -10.5286 -10.4253 -10.3310  -9.7921  -9.7197  -9.5443  -9.4789
    -9.0705  -8.9101  -8.8812  -8.8313  -8.8232  -8.8069  -8.7845  -8.7758
    -8.7156  -8.7068  -8.6660  -8.5850  -8.5651  -8.5556  -8.4464  -8.4079
    -8.4062  -8.3979  -8.3410  -8.3123  -8.1916  -8.1813  -8.1517  -8.0992
    -8.0895  -8.0370  -8.0269  -8.0263  -7.9763  -7.9737  -7.9725  -7.9673
    -7.9530  -7.9350  -7.9347  -7.9194  -7.9046  -7.8982  -7.8051  -7.7471
    -7.3844  -7.3730  -7.2879  -7.2617  -7.1157  -7.0958  -7.0724  -7.0660
    -7.0645  -7.0586  -7.0420  -6.9994  -6.8567  -6.8405  -6.4059  -6.2118
    -6.0671  -5.8971  -5.6848  -5.5407  -5.4758  -5.4040  -5.3231  -5.2238
    -5.2187  -5.0720  -4.1802  -4.1425  -4.1210  -4.0953  -4.0903  -4.0895
    -4.0878  -3.9100  -3.8333  -3.8307  -3.7618  -3.6419  -3.5914  -3.3386
    -3.3356  -3.2151  -3.0892  -2.9268  -2.7870  -2.6846  -2.5709  -2.5608
    -2.4900  -2.2823  -2.2375  -2.1353  -2.1012  -2.0835  -2.0781  -2.0620
    -2.0359  -2.0235  -2.0026  -1.8751  -1.5116  -1.4879  -1.4705  -1.4572
    -1.4267  -1.3732  -1.3462  -1.3300  -1.2523  -1.1555  -1.1539  -1.0078
    -0.8620  -0.7870  -0.7843

     the Fermi energy is    -3.7223 ev

!    total energy              =   -2464.42797234 Ry
     estimated scf accuracy    <          8.0E-09 Ry
     smearing contrib. (-TS)   =      -0.01365294 Ry
     internal energy E=F+TS    =   -2464.41431940 Ry

     The total energy is F=E-TS. E is the sum of the following terms:
     one-electron contribution =  -39877.52432221 Ry
     hartree contribution      =   19875.94852351 Ry
     xc contribution           =    -370.41412000 Ry
     ewald contribution        =   17907.57559930 Ry

     convergence has been achieved in  38 iterations

     Forces acting on atoms (cartesian axes, Ry/au):

     atom    1 type  1   force =     0.00000000   -0.00000054   -0.00197003
     atom    2 type  1   force =     0.00000000    0.00004640   -0.00196711
     atom    3 type  1   force =     0.00000000   -0.00006020   -0.00198995
     atom    4 type  1   force =     0.00005129   -0.00006543    0.00196935
     atom    5 type  1   force =     0.00000398   -0.00010581    0.00196435
     atom    6 type  1   force =     0.00001402   -0.00003834    0.00197558
     atom    7 type  1   force =     0.00009593   -0.00005670   -0.00193627
     atom    8 type  1   force =     0.00006836    0.00004775   -0.00194082
     atom    9 type  1   force =     0.00012295    0.00000164   -0.00195235
     atom   10 type  1   force =     0.00000000   -0.00009073    0.00200408
     atom   11 type  1   force =     0.00000000   -0.00003301    0.00199911
     atom   12 type  1   force =     0.00000000   -0.00008516    0.00199231
     atom   13 type  1   force =    -0.00009593   -0.00005670   -0.00193627
     atom   14 type  1   force =    -0.00006836    0.00004775   -0.00194082
     atom   15 type  1   force =    -0.00012295    0.00000164   -0.00195235
     atom   16 type  1   force =    -0.00005129   -0.00006543    0.00196935
     atom   17 type  1   force =    -0.00000398   -0.00010581    0.00196435
     atom   18 type  1   force =    -0.00001402   -0.00003834    0.00197558
     atom   19 type  2   force =    -0.00963007    0.00001027   -0.00227101
     atom   20 type  2   force =    -0.00962132    0.00001781   -0.00226692
     atom   21 type  2   force =    -0.00959561    0.00001579   -0.00225985
     atom   22 type  2   force =     0.00958263    0.00001752    0.00225150
     atom   23 type  2   force =     0.00958681    0.00002660    0.00224447
     atom   24 type  2   force =     0.00954529    0.00002031    0.00226514
     atom   25 type  2   force =    -0.00954567    0.00001997    0.00226559
     atom   26 type  2   force =    -0.00959146    0.00002676    0.00224556
     atom   27 type  2   force =    -0.00957946    0.00001841    0.00224976
     atom   28 type  2   force =     0.00962849    0.00001194   -0.00227218
     atom   29 type  2   force =    -0.00962195    0.00001180   -0.00226985
     atom   30 type  2   force =     0.00962087    0.00001902   -0.00226718
     atom   31 type  2   force =    -0.00962033    0.00001866   -0.00226784
     atom   32 type  2   force =     0.00959243    0.00001283   -0.00226014
     atom   33 type  2   force =    -0.00959216    0.00001473   -0.00225936
     atom   34 type  2   force =     0.00957868    0.00001803    0.00224892
     atom   35 type  2   force =    -0.00957868    0.00001803    0.00224892
     atom   36 type  2   force =     0.00959037    0.00002494    0.00224296
     atom   37 type  2   force =    -0.00959037    0.00002494    0.00224296
     atom   38 type  2   force =     0.00954663    0.00002312    0.00226637
     atom   39 type  2   force =    -0.00954663    0.00002312    0.00226637
     atom   40 type  2   force =     0.00962195    0.00001180   -0.00226985
     atom   41 type  2   force =    -0.00962849    0.00001194   -0.00227218
     atom   42 type  2   force =     0.00962033    0.00001866   -0.00226784
     atom   43 type  2   force =    -0.00962087    0.00001902   -0.00226718
     atom   44 type  2   force =     0.00959216    0.00001473   -0.00225936
     atom   45 type  2   force =    -0.00959243    0.00001283   -0.00226014
     atom   46 type  2   force =     0.00957946    0.00001841    0.00224976
     atom   47 type  2   force =    -0.00958263    0.00001752    0.00225150
     atom   48 type  2   force =     0.00959146    0.00002676    0.00224556
     atom   49 type  2   force =     0.00959561    0.00001579   -0.00225985
     atom   50 type  2   force =     0.00962132    0.00001781   -0.00226692
     atom   51 type  2   force =     0.00963007    0.00001027   -0.00227101
     atom   52 type  2   force =     0.00954567    0.00001997    0.00226559
     atom   53 type  2   force =    -0.00954529    0.00002031    0.00226514
     atom   54 type  2   force =    -0.00958681    0.00002660    0.00224447

     Total force =     0.059719     Total SCF correction =     0.000158

     BFGS Geometry Optimization
     Energy error            =      0.0E+00 Ry
     Gradient error          =      9.6E-03 Ry/Bohr

     number of scf cycles    =   1
     number of bfgs steps    =   0

     energy             new  =   -2464.4279723398 Ry

     new trust radius        =       0.0098942357 bohr
     new conv_thr            =       0.0000000100 Ry


ATOMIC_POSITIONS (angstrom)
Nb            0.0000000000        1.7586431569        1.2415085945
Nb            0.0000000000        5.2986522791        1.2415101377
Nb            0.0000000000        8.8385801500        1.2414980535
Nb            2.4800161315       10.6086694248        1.0731197993
Nb            2.4799910940        7.0686637755        1.0731171521
Nb            2.4799964057        3.5287151965        1.0731230974
Nb            4.9600287395        1.7586134397        1.2415264616
Nb            4.9600141483        5.2986529918        1.2415240548
Nb            4.9600430396        8.8386128720        1.2415179488
Nb            7.4399669640       10.6086560358        1.0731381754
Nb            7.4399669640        7.0687022977        1.0731355479
Nb            7.4399669640        3.5286904186        1.0731319497
Nb            9.9199051885        1.7586134397        1.2415264616
Nb            9.9199197797        5.2986529918        1.2415240548
Nb            9.9198908884        8.8386128720        1.2415179488
Nb           12.3999177965       10.6086694248        1.0731197993
Nb           12.3999428340        7.0686637755        1.0731171521
Nb           12.3999375223        3.5287151965        1.0731230974
C             0.6806322692       10.6085864467        0.0274733434
C             0.6806369021        7.0686061536        0.0274755084
C             0.6806505038        3.5286208016        0.0274792520
C             1.7993511234        1.7586721428        2.2871865364
C             1.7993533342        5.2986612268        2.2871828148
C             1.7993313616        8.8386421801        2.2871937548
C             3.1606464155        8.8386420014        2.2871939943
C             3.1606221825        5.2986613150        2.2871833916
C             3.1606285331        1.7586726150        2.2871856193
C             4.2793448692       10.6085873263        0.0274727279
C             5.6406145407       10.6085872544        0.0274739594
C             4.2793408371        7.0686067925        0.0274753730
C             5.6406154032        7.0686066044        0.0274750216
C             4.2793257866        3.5286192365        0.0274790999
C             5.6406303093        3.5286202445        0.0274795121
C             6.7593270075        1.7586724119        2.2871851718
C             8.1206069205        1.7586724119        2.2871851718
C             6.7593331908        5.2986603525        2.2871820194
C             8.1206007372        5.2986603525        2.2871820194
C             6.7593100491        8.8386436675        2.2871944080
C             8.1206238789        8.8386436675        2.2871944080
C             9.2393193873       10.6085872544        0.0274739594
C            10.6005890588       10.6085873263        0.0274727279
C             9.2393185248        7.0686066044        0.0274750216
C            10.6005930909        7.0686067925        0.0274753730
C             9.2393036187        3.5286202445        0.0274795121
C            10.6006081414        3.5286192365        0.0274790999
C            11.7193053949        1.7586726150        2.2871856193
C            13.0805828046        1.7586721428        2.2871865364
C            11.7193117455        5.2986613150        2.2871833916
C            14.1992834242        3.5286208016        0.0274792520
C            14.1992970259        7.0686061536        0.0274755084
C            14.1993016588       10.6085864467        0.0274733434
C            11.7192875125        8.8386420014        2.2871939943
C            13.0806025664        8.8386421801        2.2871937548
C            13.0805805938        5.2986612268        2.2871828148



     Writing output data file /home/fernando/serse/temp/NB.save/
     NEW-OLD atomic charge density approx. for the potential

     negative rho (up, down):  3.659E-07 0.000E+00

     total cpu time spent up to now is    41101.7 secs

     Self-consistent Calculation

     iteration #  1     ecut=   100.00 Ry     beta= 0.70
     Davidson diagonalization with overlap
     ethr =  1.00E-06,  avg # of iterations =  6.9

     total cpu time spent up to now is    42712.3 secs

     total energy              =   -2464.42492982 Ry
     estimated scf accuracy    <       0.00885961 Ry

     iteration #  2     ecut=   100.00 Ry     beta= 0.70
     Davidson diagonalization with overlap
     ethr =  2.34E-06,  avg # of iterations =  5.9

     total cpu time spent up to now is    43857.3 secs

     total energy              =   -2464.42306872 Ry
     estimated scf accuracy    <       0.02100668 Ry

     iteration #  3     ecut=   100.00 Ry     beta= 0.70
     Davidson diagonalization with overlap
     c_bands:  1 eigenvalues not converged
     c_bands:  1 eigenvalues not converged
     ethr =  2.34E-06,  avg # of iterations = 15.3

     total cpu time spent up to now is    45126.5 secs

     total energy              =   -2464.41831126 Ry
     estimated scf accuracy    <       0.19848916 Ry

     iteration #  4     ecut=   100.00 Ry     beta= 0.70
     Davidson diagonalization with overlap
     c_bands:  1 eigenvalues not converged
     ethr =  2.34E-06,  avg # of iterations = 13.2

     total cpu time spent up to now is    46227.0 secs

     total energy              =   -2464.42822190 Ry
     estimated scf accuracy    <       0.00218025 Ry

     iteration #  5     ecut=   100.00 Ry     beta= 0.70
     Davidson diagonalization with overlap
     ethr =  5.77E-07,  avg # of iterations =  5.4

     total cpu time spent up to now is    47104.6 secs

     total energy              =   -2464.42841270 Ry
     estimated scf accuracy    <       0.00273277 Ry

     iteration #  6     ecut=   100.00 Ry     beta= 0.70
     Davidson diagonalization with overlap
     ethr =  5.77E-07,  avg # of iterations =  2.0

     total cpu time spent up to now is    47845.4 secs

     total energy              =   -2464.42865493 Ry
     estimated scf accuracy    <       0.00009821 Ry

     iteration #  7     ecut=   100.00 Ry     beta= 0.70
     Davidson diagonalization with overlap
     ethr =  2.60E-08,  avg # of iterations =  6.7

     total cpu time spent up to now is    48894.9 secs

     total energy              =   -2464.42868050 Ry
     estimated scf accuracy    <       0.00027082 Ry

     iteration #  8     ecut=   100.00 Ry     beta= 0.70
     Davidson diagonalization with overlap
     ethr =  2.60E-08,  avg # of iterations =  3.8

     total cpu time spent up to now is    49715.5 secs

     total energy              =   -2464.42870163 Ry
     estimated scf accuracy    <       0.00003224 Ry

     iteration #  9     ecut=   100.00 Ry     beta= 0.70
     Davidson diagonalization with overlap
     ethr =  8.53E-09,  avg # of iterations =  5.8

     total cpu time spent up to now is    50581.0 secs

     total energy              =   -2464.42870548 Ry
     estimated scf accuracy    <       0.00001633 Ry

     iteration # 10     ecut=   100.00 Ry     beta= 0.70
     Davidson diagonalization with overlap
     ethr =  4.32E-09,  avg # of iterations =  2.0

     total cpu time spent up to now is    51340.8 secs

     total energy              =   -2464.42870691 Ry
     estimated scf accuracy    <       0.00000205 Ry

     iteration # 11     ecut=   100.00 Ry     beta= 0.70
     Davidson diagonalization with overlap
     ethr =  5.42E-10,  avg # of iterations =  6.1

     total cpu time spent up to now is    52354.5 secs

     total energy              =   -2464.42870727 Ry
     estimated scf accuracy    <       0.00000277 Ry

     iteration # 12     ecut=   100.00 Ry     beta= 0.70
     Davidson diagonalization with overlap
     ethr =  5.42E-10,  avg # of iterations =  3.0

     total cpu time spent up to now is    53156.3 secs

     total energy              =   -2464.42870749 Ry
     estimated scf accuracy    <       0.00000088 Ry

     iteration # 13     ecut=   100.00 Ry     beta= 0.70
     Davidson diagonalization with overlap
     ethr =  2.32E-10,  avg # of iterations =  3.2

     total cpu time spent up to now is    53962.3 secs

     total energy              =   -2464.42870751 Ry
     estimated scf accuracy    <       0.00000127 Ry

     iteration # 14     ecut=   100.00 Ry     beta= 0.70
     Davidson diagonalization with overlap
     ethr =  2.32E-10,  avg # of iterations =  1.3

     total cpu time spent up to now is    54671.5 secs

     total energy              =   -2464.42870760 Ry
     estimated scf accuracy    <       0.00000015 Ry

     iteration # 15     ecut=   100.00 Ry     beta= 0.70
     Davidson diagonalization with overlap
     ethr =  3.87E-11,  avg # of iterations =  5.2

     total cpu time spent up to now is    55485.6 secs

     total energy              =   -2464.42870760 Ry
     estimated scf accuracy    <       0.00000018 Ry

     iteration # 16     ecut=   100.00 Ry     beta= 0.70
     Davidson diagonalization with overlap
     ethr =  3.87E-11,  avg # of iterations =  2.0

     total cpu time spent up to now is    56237.7 secs

     total energy              =   -2464.42870761 Ry
     estimated scf accuracy    <       0.00000003 Ry

     iteration # 17     ecut=   100.00 Ry     beta= 0.70
     Davidson diagonalization with overlap
     ethr =  7.37E-12,  avg # of iterations =  6.0

     total cpu time spent up to now is    57213.0 secs

     total energy              =   -2464.42870762 Ry
     estimated scf accuracy    <       0.00000003 Ry

     iteration # 18     ecut=   100.00 Ry     beta= 0.70
     Davidson diagonalization with overlap
     ethr =  6.69E-12,  avg # of iterations =  2.0

     total cpu time spent up to now is    57969.7 secs

     End of self-consistent calculation

          k = 0.0000 0.0000 0.0000 (810009 PWs)   bands (ev):

   -60.6973 -60.6716 -60.6716 -60.6649 -60.6649 -60.6520 -60.6520 -60.6520
   -60.6520 -60.6261 -60.6261 -60.6261 -60.6261 -60.6199 -60.6199 -60.6132
   -60.6132 -60.5939 -36.0080 -36.0080 -36.0080 -36.0080 -35.9145 -35.9105
   -35.9105 -35.9105 -35.9105 -35.8925 -35.8925 -35.8227 -35.7576 -35.7576
   -35.7499 -35.7498 -35.7472 -35.7472 -35.7257 -35.7257 -35.7149 -35.6572
   -35.6572 -35.6549 -35.6549 -35.6350 -35.6350 -35.6350 -35.6350 -35.6046
   -35.6046 -35.6010 -35.6010 -35.5955 -35.5955 -35.5954 -35.5954 -35.5758
   -35.5758 -35.5587 -35.5249 -35.4764 -35.4764 -35.4764 -35.4764 -35.3619
   -35.3619 -35.3542 -35.3542 -35.3152 -35.3152 -35.3152 -35.3152 -35.1728
   -18.9313 -18.7182 -18.7181 -18.5486 -18.5484 -18.5274 -18.5226 -18.5226
   -18.4213 -18.4213 -18.4211 -18.4211 -18.3676 -18.3674 -18.3328 -18.3328
   -18.3327 -18.3327 -11.6690 -11.6689 -11.6689 -11.6689 -11.5581 -11.5580
   -11.3354 -11.3231 -11.3231 -11.3230 -11.3230 -11.0289 -11.0289 -10.8542
   -10.8541 -10.4252 -10.4251 -10.1245 -10.0384  -9.7395  -9.7395  -9.2189
    -9.0369  -9.0369  -8.8327  -8.8294  -8.8293  -8.8244  -8.8244  -8.8243
    -8.8243  -8.7270  -8.7269  -8.6589  -8.6589  -8.5891  -8.5890  -8.2583
    -8.2583  -8.2582  -8.2582  -8.2408  -8.2408  -8.2295  -8.2295  -8.2295
    -8.2295  -8.1952  -8.1952  -8.1339  -8.0601  -8.0600  -7.8365  -7.8364
    -7.8364  -7.8364  -7.8096  -7.6240  -7.6240  -7.5673  -7.5673  -7.5672
    -7.5672  -7.5252  -7.5252  -7.5252  -7.5251  -7.2354  -7.2258  -7.2257
    -7.1640  -7.1124  -7.1124  -7.0163  -7.0163  -6.1454  -6.1454  -6.1454
    -6.1454  -6.0601  -6.0600  -5.1977  -5.1976  -4.9218  -4.9217  -4.9217
    -4.9217  -4.8209  -4.8209  -4.8209  -4.8208  -4.1869  -4.1869  -4.1859
    -4.1858  -4.0137  -4.0137  -4.0136  -4.0136  -3.8583  -3.8583  -3.5416
    -3.5416  -2.7493  -2.6684  -2.6683  -2.4060  -2.3440  -2.3397  -2.3397
    -2.3108  -2.3107  -2.2461  -2.2461  -2.2461  -2.2461  -2.0496  -2.0495
    -1.8603  -1.8603  -1.8602  -1.8602  -1.6990  -1.6990  -1.1800  -1.1799
    -1.1150  -1.0574  -1.0386  -1.0135  -1.0135  -0.9537  -0.9153  -0.8807
    -0.8451  -0.8451  -0.8451

          k = 0.0000 0.2802 0.0000 (810402 PWs)   bands (ev):

   -60.6958 -60.6754 -60.6707 -60.6707 -60.6581 -60.6581 -60.6537 -60.6457
   -60.6457 -60.6297 -60.6297 -60.6235 -60.6235 -60.6217 -60.6201 -60.6201
   -60.6062 -60.5946 -36.0281 -36.0281 -35.9718 -35.9718 -35.9684 -35.9684
   -35.9063 -35.8932 -35.8805 -35.8402 -35.8402 -35.8282 -35.8109 -35.8109
   -35.8035 -35.7894 -35.7116 -35.7026 -35.7026 -35.6858 -35.6729 -35.6540
   -35.6507 -35.6507 -35.6465 -35.6465 -35.6364 -35.6336 -35.6336 -35.6239
   -35.6239 -35.5996 -35.5996 -35.5944 -35.5944 -35.5932 -35.5932 -35.5876
   -35.5664 -35.5617 -35.5343 -35.5245 -35.5245 -35.4314 -35.4314 -35.4244
   -35.3522 -35.3521 -35.3313 -35.3313 -35.3102 -35.3102 -35.2925 -35.1807
   -18.9093 -18.7007 -18.7006 -18.6514 -18.5165 -18.5103 -18.5103 -18.4990
   -18.4990 -18.4607 -18.4013 -18.3771 -18.3771 -18.3576 -18.3575 -18.3518
   -18.3043 -18.3043 -11.6603 -11.6603 -11.6531 -11.6531 -11.5668 -11.5667
   -11.4468 -11.4468 -11.3207 -11.1892 -11.1892 -11.1268 -10.9214 -10.8796
   -10.8796 -10.5544 -10.3022 -10.1081 -10.0567  -9.8850  -9.5436  -9.1736
    -9.0253  -9.0253  -8.9187  -8.9187  -8.8531  -8.8049  -8.7769  -8.7768
    -8.7463  -8.7186  -8.7185  -8.6998  -8.6998  -8.6913  -8.4065  -8.3739
    -8.3739  -8.3251  -8.3251  -8.2280  -8.2279  -8.1960  -8.1960  -8.1955
    -8.1955  -8.0980  -8.0980  -8.0717  -8.0717  -8.0689  -8.0536  -8.0388
    -7.8298  -7.8117  -7.8117  -7.7556  -7.7556  -7.6369  -7.6369  -7.6255
    -7.6255  -7.4585  -7.3444  -7.3443  -7.3016  -7.3016  -7.2260  -7.2131
    -7.1797  -7.1000  -7.0268  -6.9207  -6.9171  -6.2406  -6.2405  -6.1104
    -6.1103  -5.9913  -5.9912  -5.7477  -5.2064  -5.2064  -4.8903  -4.8902
    -4.8586  -4.8586  -4.5989  -4.4090  -4.4089  -4.3050  -4.3050  -4.2959
    -4.2959  -4.0930  -4.0929  -3.8508  -3.8028  -3.8027  -3.6236  -3.5498
    -3.5498  -2.9742  -2.9362  -2.4375  -2.4364  -2.3776  -2.3501  -2.3092
    -2.3091  -2.2095  -2.2095  -2.1962  -2.0449  -2.0400  -2.0400  -1.9653
    -1.8654  -1.8654  -1.8504  -1.8503  -1.7107  -1.7106  -1.6103  -1.4598
    -1.4348  -1.3871  -1.1429  -1.1048  -1.1048  -1.0556  -1.0556  -1.0144
    -0.9633  -0.8801  -0.8801

          k = 0.0000 0.5605 0.0000 (810594 PWs)   bands (ev):

   -60.6914 -60.6844 -60.6679 -60.6679 -60.6636 -60.6636 -60.6424 -60.6397
   -60.6397 -60.6342 -60.6342 -60.6316 -60.6218 -60.6218 -60.6206 -60.6206
   -60.6008 -60.5969 -36.0289 -36.0289 -36.0088 -36.0088 -35.9238 -35.9238
   -35.8818 -35.8790 -35.8688 -35.8688 -35.8621 -35.8487 -35.8428 -35.8422
   -35.7642 -35.7642 -35.7025 -35.6915 -35.6915 -35.6891 -35.6721 -35.6721
   -35.6581 -35.6581 -35.6270 -35.6213 -35.6213 -35.6184 -35.6140 -35.6140
   -35.6058 -35.6058 -35.6019 -35.5926 -35.5926 -35.5923 -35.5923 -35.5810
   -35.5776 -35.5741 -35.5740 -35.5588 -35.5506 -35.4999 -35.3911 -35.3911
   -35.3571 -35.3571 -35.3326 -35.3326 -35.3166 -35.3166 -35.2417 -35.2039
   -18.8474 -18.7563 -18.6516 -18.6516 -18.5802 -18.5801 -18.4863 -18.4764
   -18.4764 -18.4445 -18.4285 -18.4285 -18.3966 -18.3604 -18.3152 -18.3152
   -18.2974 -18.2974 -11.6230 -11.6230 -11.6208 -11.6208 -11.5907 -11.5906
   -11.5486 -11.5486 -11.2781 -11.2117 -11.0601 -11.0600 -10.9518 -10.9518
   -10.8057 -10.6828 -10.1944 -10.1102 -10.0614  -9.9884  -9.3034  -9.0451
    -9.0429  -9.0045  -9.0045  -8.9760  -8.9760  -8.8758  -8.8613  -8.8466
    -8.6583  -8.6582  -8.6232  -8.6231  -8.5610  -8.5610  -8.5290  -8.5290
    -8.4293  -8.4293  -8.3838  -8.3838  -8.2346  -8.1987  -8.1987  -8.1968
    -8.1968  -8.1079  -8.0874  -8.0874  -7.9769  -7.9769  -7.9638  -7.9428
    -7.9427  -7.9068  -7.8853  -7.8759  -7.8759  -7.6937  -7.6363  -7.6362
    -7.6299  -7.6298  -7.2373  -7.2144  -7.1998  -7.1771  -7.1771  -7.1646
    -7.1646  -7.1589  -6.8979  -6.8650  -6.6208  -6.2619  -6.2618  -6.2275
    -6.2060  -6.2059  -5.7852  -5.7852  -5.5254  -5.5254  -4.7729  -4.7729
    -4.7242  -4.7242  -4.5657  -4.5657  -4.5265  -4.5264  -4.0067  -4.0067
    -3.9822  -3.8966  -3.8965  -3.7599  -3.7598  -3.6939  -3.6939  -3.6172
    -3.3975  -3.2863  -3.2135  -2.7535  -2.4136  -2.2288  -2.1985  -2.1920
    -2.1920  -2.1488  -2.0354  -1.9653  -1.9652  -1.9484  -1.9484  -1.9411
    -1.8269  -1.8268  -1.8264  -1.8104  -1.8103  -1.8101  -1.7509  -1.7508
    -1.7356  -1.6076  -1.3754  -1.3753  -1.2889  -1.2888  -1.1978  -1.1605
    -1.1256  -1.1255  -1.0550

          k = 0.2000 0.0000 0.0000 (810173 PWs)   bands (ev):

   -60.6962 -60.6803 -60.6644 -60.6644 -60.6618 -60.6564 -60.6564 -60.6471
   -60.6471 -60.6311 -60.6311 -60.6298 -60.6217 -60.6217 -60.6138 -60.6138
   -60.6111 -60.5950 -36.0097 -36.0097 -35.9949 -35.9949 -35.9485 -35.9485
   -35.9085 -35.9084 -35.9074 -35.8678 -35.8678 -35.8195 -35.8083 -35.7746
   -35.7575 -35.7575 -35.7217 -35.7128 -35.7090 -35.7039 -35.7039 -35.6798
   -35.6540 -35.6540 -35.6418 -35.6418 -35.6297 -35.6274 -35.6274 -35.6233
   -35.6223 -35.6030 -35.6030 -35.5888 -35.5888 -35.5887 -35.5766 -35.5766
   -35.5754 -35.5606 -35.5344 -35.5344 -35.5282 -35.4310 -35.4244 -35.4244
   -35.3493 -35.3493 -35.3256 -35.3256 -35.3155 -35.3155 -35.2991 -35.1813
   -18.9204 -18.7815 -18.6574 -18.5419 -18.5418 -18.5374 -18.5260 -18.5175
   -18.4584 -18.4583 -18.3869 -18.3867 -18.3652 -18.3650 -18.3394 -18.3392
   -18.3325 -18.3324 -11.7222 -11.7222 -11.5601 -11.5601 -11.5558 -11.5097
   -11.5066 -11.5065 -11.3668 -11.1042 -11.1041 -11.0915 -11.0914 -11.0704
   -10.6277 -10.4879 -10.4878 -10.0883 -10.0562  -9.6665  -9.6665  -9.3326
    -9.1909  -9.0362  -9.0362  -8.9291  -8.8323  -8.7809  -8.7804  -8.7367
    -8.6515  -8.6384  -8.6383  -8.6077  -8.6077  -8.5733  -8.5733  -8.3474
    -8.3473  -8.3212  -8.2973  -8.2972  -8.2583  -8.2582  -8.2474  -8.2084
    -8.1387  -8.1116  -8.1116  -8.0740  -8.0620  -8.0620  -7.9602  -7.9601
    -7.8283  -7.8099  -7.8099  -7.7850  -7.6097  -7.6096  -7.5410  -7.5409
    -7.4931  -7.4884  -7.4884  -7.4336  -7.4335  -7.2879  -7.2878  -7.2537
    -7.1144  -7.0531  -7.0530  -7.0194  -7.0194  -6.4319  -6.3958  -6.3958
    -5.9093  -5.9092  -5.6318  -5.2294  -5.2294  -5.1780  -5.1779  -4.9404
    -4.9404  -4.7142  -4.7142  -4.5502  -4.5502  -4.4278  -4.4265  -4.2715
    -4.2715  -4.0995  -3.8739  -3.8487  -3.8482  -3.8482  -3.6988  -3.6988
    -2.9817  -2.9354  -2.7687  -2.7687  -2.6299  -2.6299  -2.5935  -2.4999
    -2.4999  -2.3103  -2.2345  -2.1206  -2.1003  -2.1003  -1.9814  -1.9814
    -1.8403  -1.7172  -1.7172  -1.7019  -1.7019  -1.5557  -1.4952  -1.4289
    -1.2506  -1.2505  -1.1609  -0.9779  -0.9402  -0.9402  -0.8534  -0.8533
    -0.8072  -0.8071  -0.7573

          k = 0.2000 0.2802 0.0000 (810351 PWs)   bands (ev):

   -60.6947 -60.6792 -60.6746 -60.6640 -60.6610 -60.6533 -60.6515 -60.6484
   -60.6426 -60.6327 -60.6301 -60.6298 -60.6270 -60.6221 -60.6177 -60.6115
   -60.6069 -60.5957 -36.0389 -36.0064 -36.0014 -35.9685 -35.9639 -35.9286
   -35.9076 -35.9018 -35.8994 -35.8814 -35.8421 -35.8225 -35.8150 -35.7967
   -35.7763 -35.7629 -35.7411 -35.7096 -35.6946 -35.6771 -35.6728 -35.6717
   -35.6667 -35.6556 -35.6363 -35.6362 -35.6352 -35.6281 -35.6192 -35.6119
   -35.6057 -35.6056 -35.6042 -35.6033 -35.5955 -35.5881 -35.5863 -35.5841
   -35.5778 -35.5676 -35.5640 -35.5377 -35.4822 -35.4662 -35.4159 -35.4154
   -35.3885 -35.3462 -35.3350 -35.3271 -35.2954 -35.2951 -35.2912 -35.1883
   -18.8986 -18.7627 -18.6436 -18.6413 -18.5440 -18.5244 -18.5150 -18.5057
   -18.4567 -18.4552 -18.3993 -18.3871 -18.3818 -18.3796 -18.3488 -18.3311
   -18.3154 -18.2984 -11.7445 -11.6759 -11.6114 -11.5750 -11.5587 -11.5238
   -11.5215 -11.3867 -11.3539 -11.2401 -11.1817 -11.0950 -10.9889 -10.9633
   -10.6525 -10.6205 -10.3611 -10.1073 -10.0393  -9.8120  -9.4732  -9.3180
    -9.1509  -9.1449  -8.8860  -8.8772  -8.8510  -8.7804  -8.7691  -8.7518
    -8.7318  -8.7137  -8.6845  -8.6457  -8.6354  -8.5424  -8.5082  -8.3912
    -8.3785  -8.3195  -8.3138  -8.3030  -8.2202  -8.2134  -8.2119  -8.1881
    -8.1679  -8.1574  -8.0791  -8.0748  -8.0485  -8.0452  -8.0206  -7.9666
    -7.8736  -7.8473  -7.8286  -7.8083  -7.7837  -7.7795  -7.6939  -7.4942
    -7.4936  -7.4887  -7.3171  -7.2919  -7.2901  -7.2852  -7.2454  -7.1465
    -7.1319  -7.1312  -7.0982  -6.9604  -6.8161  -6.5165  -6.4664  -6.2152
    -5.9696  -5.7871  -5.7129  -5.7097  -5.3458  -5.1929  -5.1888  -5.0644
    -4.6211  -4.6003  -4.5649  -4.5549  -4.5375  -4.4072  -4.3427  -4.3120
    -4.0387  -3.9784  -3.9543  -3.9503  -3.8648  -3.7678  -3.5967  -3.4914
    -3.1752  -3.0774  -3.0710  -2.6205  -2.5748  -2.5343  -2.5255  -2.4921
    -2.2882  -2.2457  -2.2015  -2.1669  -2.0755  -1.9877  -1.9720  -1.9684
    -1.9600  -1.8521  -1.7414  -1.7270  -1.6969  -1.6203  -1.6023  -1.5675
    -1.3682  -1.2204  -1.1876  -1.1845  -1.1158  -1.0773  -1.0133  -0.9891
    -0.9571  -0.9306  -0.8338

          k = 0.2000 0.5605 0.0000 (810447 PWs)   bands (ev):

   -60.6903 -60.6835 -60.6759 -60.6707 -60.6589 -60.6556 -60.6423 -60.6406
   -60.6386 -60.6353 -60.6333 -60.6317 -60.6297 -60.6297 -60.6146 -60.6126
   -60.6017 -60.5980 -36.0480 -36.0354 -35.9998 -35.9736 -35.9312 -35.9063
   -35.8924 -35.8900 -35.8887 -35.8877 -35.8612 -35.8419 -35.8249 -35.8068
   -35.8063 -35.7311 -35.7226 -35.7007 -35.6976 -35.6876 -35.6703 -35.6670
   -35.6554 -35.6548 -35.6454 -35.6350 -35.6340 -35.6182 -35.6155 -35.6124
   -35.6073 -35.6073 -35.6049 -35.6044 -35.6021 -35.5857 -35.5812 -35.5794
   -35.5625 -35.5623 -35.5604 -35.5529 -35.5130 -35.4880 -35.4318 -35.3857
   -35.3841 -35.3596 -35.3551 -35.3388 -35.2881 -35.2867 -35.2440 -35.2094
   -18.8373 -18.7473 -18.7097 -18.6324 -18.5960 -18.5305 -18.4885 -18.4846
   -18.4733 -18.4427 -18.4373 -18.4278 -18.3921 -18.3567 -18.3378 -18.3139
   -18.2962 -18.2853 -11.7348 -11.6898 -11.6181 -11.5740 -11.5662 -11.5630
   -11.4548 -11.3597 -11.3164 -11.2670 -11.2577 -11.1644 -10.8751 -10.8316
   -10.7514 -10.7235 -10.2497 -10.1626  -9.9914  -9.9168  -9.2814  -9.2382
    -9.2290  -9.0139  -8.9843  -8.8696  -8.8357  -8.8247  -8.7664  -8.7563
    -8.7487  -8.7256  -8.7123  -8.6528  -8.5372  -8.5354  -8.5326  -8.4898
    -8.4437  -8.3725  -8.3628  -8.3367  -8.3117  -8.2525  -8.2203  -8.1270
    -8.1245  -8.0950  -8.0950  -8.0405  -8.0335  -8.0046  -7.9758  -7.9382
    -7.9237  -7.9161  -7.9002  -7.8758  -7.8720  -7.7816  -7.7811  -7.7112
    -7.4979  -7.4967  -7.2222  -7.1861  -7.1856  -7.1671  -7.1658  -7.1636
    -7.1386  -7.1303  -6.9533  -6.9084  -6.5621  -6.5414  -6.5324  -6.1709
    -5.9823  -5.9548  -5.8581  -5.6940  -5.6085  -5.3720  -5.0769  -5.0513
    -4.8806  -4.8397  -4.4497  -4.3350  -4.2461  -4.1375  -4.0935  -4.0270
    -4.0116  -3.9833  -3.9677  -3.8737  -3.6665  -3.5877  -3.5442  -3.4708
    -3.4533  -3.3706  -3.1664  -2.6511  -2.4970  -2.4622  -2.4027  -2.3456
    -2.3416  -2.2854  -2.1609  -2.1149  -2.0826  -2.0171  -1.9858  -1.9485
    -1.9437  -1.9383  -1.8894  -1.7101  -1.6800  -1.6636  -1.6070  -1.5461
    -1.4681  -1.4178  -1.3757  -1.2943  -1.2620  -1.2544  -1.2444  -1.2385
    -1.2356  -1.0610  -0.9054

          k = 0.4000 0.0000 0.0000 (810298 PWs)   bands (ev):

   -60.6928 -60.6875 -60.6627 -60.6627 -60.6600 -60.6600 -60.6512 -60.6418
   -60.6418 -60.6404 -60.6364 -60.6364 -60.6181 -60.6181 -60.6154 -60.6154
   -60.6038 -60.5984 -35.9998 -35.9998 -35.9790 -35.9790 -35.9715 -35.9715
   -35.9404 -35.9404 -35.8864 -35.8527 -35.8244 -35.8244 -35.8102 -35.7950
   -35.7854 -35.7854 -35.7063 -35.6955 -35.6915 -35.6720 -35.6604 -35.6553
   -35.6553 -35.6507 -35.6506 -35.6474 -35.6474 -35.6451 -35.6193 -35.6193
   -35.6110 -35.6110 -35.5952 -35.5952 -35.5833 -35.5833 -35.5792 -35.5792
   -35.5759 -35.5688 -35.5664 -35.5541 -35.5381 -35.5020 -35.3808 -35.3808
   -35.3476 -35.3476 -35.3373 -35.3372 -35.3241 -35.3241 -35.2463 -35.2062
   -18.8889 -18.8408 -18.6050 -18.5645 -18.5229 -18.5228 -18.5224 -18.5185
   -18.4938 -18.4937 -18.3593 -18.3591 -18.3584 -18.3582 -18.3489 -18.3487
   -18.3410 -18.3408 -11.7129 -11.7129 -11.6397 -11.6396 -11.5107 -11.4384
   -11.4091 -11.4091 -11.4091 -11.2598 -11.2392 -11.2392 -10.8708 -10.8707
   -10.6519 -10.6519 -10.4099 -10.2218  -9.8746  -9.6220  -9.4871  -9.4871
    -9.2639  -9.2639  -9.1203  -9.0286  -8.8279  -8.8128  -8.6647  -8.6520
    -8.5559  -8.5264  -8.5263  -8.4850  -8.4849  -8.4798  -8.4798  -8.4496
    -8.4496  -8.4439  -8.3708  -8.3706  -8.3360  -8.3360  -8.1768  -8.1585
    -8.1530  -8.0638  -8.0637  -8.0451  -8.0451  -8.0044  -8.0043  -7.9746
    -7.9668  -7.9020  -7.9020  -7.8824  -7.5655  -7.5655  -7.5453  -7.5452
    -7.4340  -7.4340  -7.3875  -7.3665  -7.3664  -7.3062  -7.2864  -7.2864
    -7.1515  -7.1515  -6.9695  -6.8499  -6.8499  -6.7384  -6.6376  -6.6376
    -5.6957  -5.6957  -5.4822  -5.4822  -5.1559  -5.1228  -5.1228  -5.0406
    -5.0406  -4.6416  -4.5992  -4.5992  -4.5553  -4.5552  -4.4616  -4.4616
    -4.1827  -4.1827  -3.9143  -3.9143  -3.5385  -3.4403  -3.3552  -3.3552
    -3.2232  -3.0245  -3.0245  -2.9970  -2.8413  -2.8413  -2.7530  -2.7530
    -2.4345  -2.1902  -2.1167  -2.0649  -2.0649  -2.0466  -2.0466  -1.9809
    -1.9310  -1.9134  -1.7138  -1.5329  -1.5329  -1.4104  -1.3776  -1.3775
    -1.3337  -1.3099  -1.3098  -1.2714  -0.9981  -0.9981  -0.8366  -0.8366
    -0.7556  -0.7555  -0.6876

          k = 0.4000 0.2802 0.0000 (810351 PWs)   bands (ev):

   -60.6914 -60.6862 -60.6724 -60.6688 -60.6523 -60.6507 -60.6507 -60.6445
   -60.6402 -60.6393 -60.6372 -60.6360 -60.6248 -60.6231 -60.6128 -60.6092
   -60.6044 -60.5990 -36.0379 -36.0251 -35.9758 -35.9540 -35.9454 -35.9401
   -35.9297 -35.9173 -35.8889 -35.8857 -35.8686 -35.8453 -35.8054 -35.7776
   -35.7548 -35.7397 -35.7190 -35.7105 -35.7035 -35.7026 -35.6930 -35.6680
   -35.6640 -35.6504 -35.6483 -35.6342 -35.6316 -35.6306 -35.6254 -35.6142
   -35.6142 -35.6091 -35.5922 -35.5916 -35.5897 -35.5846 -35.5767 -35.5712
   -35.5710 -35.5618 -35.5476 -35.5465 -35.5373 -35.4814 -35.4140 -35.3946
   -35.3698 -35.3689 -35.3559 -35.3352 -35.2891 -35.2889 -35.2471 -35.2109
   -18.8679 -18.8207 -18.6210 -18.5901 -18.5863 -18.5507 -18.5112 -18.5072
   -18.4395 -18.4214 -18.4158 -18.3962 -18.3937 -18.3863 -18.3405 -18.3285
   -18.3113 -18.3002 -11.7655 -11.7203 -11.6382 -11.5400 -11.5077 -11.4536
   -11.4299 -11.4278 -11.3433 -11.3099 -11.2820 -11.1513 -11.0115 -10.7905
   -10.7302 -10.5174 -10.4330 -10.2426  -9.8573  -9.6294  -9.6053  -9.3958
    -9.3017  -9.0928  -9.0724  -8.9784  -8.8419  -8.8203  -8.6879  -8.6235
    -8.6137  -8.6136  -8.6135  -8.5526  -8.5417  -8.5276  -8.4823  -8.4437
    -8.4208  -8.4050  -8.3731  -8.3465  -8.3438  -8.2759  -8.1388  -8.1204
    -8.1173  -8.0921  -8.0761  -8.0656  -8.0164  -7.9776  -7.9670  -7.9584
    -7.9559  -7.9308  -7.8981  -7.8910  -7.8864  -7.8511  -7.6271  -7.5586
    -7.3858  -7.3447  -7.3009  -7.2722  -7.2637  -7.2488  -7.2196  -7.1831
    -7.1826  -7.0600  -6.9895  -6.9887  -6.7731  -6.7639  -6.6444  -6.4395
    -5.7180  -5.6124  -5.6057  -5.4847  -5.4713  -5.4189  -5.3028  -4.9313
    -4.9302  -4.7725  -4.5917  -4.5591  -4.3877  -4.2773  -4.2686  -4.2194
    -4.1897  -4.0243  -3.9662  -3.6799  -3.6396  -3.6089  -3.3675  -3.3189
    -3.3181  -3.1345  -2.9312  -2.8336  -2.7809  -2.7776  -2.7691  -2.7239
    -2.5933  -2.4373  -2.1138  -2.1087  -2.0667  -2.0267  -2.0136  -1.9896
    -1.8856  -1.7756  -1.6213  -1.5901  -1.5292  -1.4901  -1.4241  -1.4185
    -1.3731  -1.3601  -1.3402  -1.3033  -1.2892  -1.1814  -1.1646  -0.9377
    -0.9184  -0.8159  -0.6496

          k = 0.4000 0.5605 0.0000 (810398 PWs)   bands (ev):

   -60.6873 -60.6824 -60.6808 -60.6765 -60.6493 -60.6471 -60.6419 -60.6413
   -60.6394 -60.6383 -60.6375 -60.6363 -60.6326 -60.6320 -60.6088 -60.6060
   -60.6044 -60.6010 -36.0557 -36.0514 -35.9635 -35.9332 -35.9278 -35.9248
   -35.9134 -35.8981 -35.8976 -35.8929 -35.8796 -35.8456 -35.8087 -35.7882
   -35.7710 -35.7560 -35.7430 -35.7009 -35.6954 -35.6858 -35.6846 -35.6831
   -35.6744 -35.6540 -35.6392 -35.6320 -35.6235 -35.6230 -35.6183 -35.6176
   -35.6167 -35.6106 -35.6089 -35.6034 -35.6026 -35.5999 -35.5719 -35.5681
   -35.5648 -35.5591 -35.5250 -35.5011 -35.4784 -35.4582 -35.4548 -35.4410
   -35.4212 -35.4016 -35.3398 -35.3327 -35.2652 -35.2521 -35.2514 -35.2256
   -18.8084 -18.7642 -18.7213 -18.6814 -18.5484 -18.5121 -18.4884 -18.4806
   -18.4758 -18.4570 -18.4380 -18.4321 -18.3794 -18.3604 -18.3465 -18.3313
   -18.2840 -18.2803 -11.7865 -11.7712 -11.5553 -11.4985 -11.4816 -11.4801
   -11.4360 -11.4049 -11.3648 -11.3447 -11.2539 -11.1418 -11.0457 -10.9241
   -10.6022 -10.4995 -10.3975 -10.3031  -9.8085  -9.7334  -9.5597  -9.4913
    -9.0800  -8.9348  -8.8912  -8.8492  -8.8426  -8.8328  -8.8105  -8.8017
    -8.7421  -8.7312  -8.6788  -8.6114  -8.5903  -8.5780  -8.4782  -8.4406
    -8.4342  -8.4236  -8.3670  -8.3396  -8.2267  -8.2107  -8.1787  -8.1146
    -8.0935  -8.0609  -8.0564  -8.0309  -8.0098  -8.0093  -7.9945  -7.9830
    -7.9498  -7.9429  -7.9425  -7.9312  -7.9166  -7.8941  -7.8113  -7.7544
    -7.3803  -7.3692  -7.2856  -7.2602  -7.1201  -7.0997  -7.0967  -7.0948
    -7.0444  -7.0439  -7.0296  -7.0030  -6.8299  -6.8132  -6.3787  -6.1858
    -6.0359  -5.8688  -5.6619  -5.5174  -5.4511  -5.3798  -5.2966  -5.1995
    -5.1990  -5.0517  -4.1478  -4.1188  -4.1091  -4.0610  -4.0608  -4.0608
    -4.0552  -3.9100  -3.8363  -3.7992  -3.7491  -3.6071  -3.5987  -3.3282
    -3.3217  -3.2020  -3.0804  -2.9139  -2.7817  -2.6856  -2.5612  -2.5601
    -2.4932  -2.2745  -2.2277  -2.1437  -2.0962  -2.0885  -2.0721  -2.0708
    -2.0315  -2.0228  -2.0103  -1.8668  -1.5140  -1.4692  -1.4656  -1.4493
    -1.4116  -1.3726  -1.3367  -1.3321  -1.2412  -1.1655  -1.1624  -0.9928
    -0.8403  -0.7815  -0.7628

     the Fermi energy is    -3.7106 ev

!    total energy              =   -2464.42870761 Ry
     estimated scf accuracy    <          7.1E-09 Ry
     smearing contrib. (-TS)   =      -0.01364638 Ry
     internal energy E=F+TS    =   -2464.41506123 Ry

     The total energy is F=E-TS. E is the sum of the following terms:
     one-electron contribution =  -39876.29647176 Ry
     hartree contribution      =   19875.36190553 Ry
     xc contribution           =    -370.52189423 Ry
     ewald contribution        =   17907.04139924 Ry

     convergence has been achieved in  18 iterations

     Forces acting on atoms (cartesian axes, Ry/au):

     atom    1 type  1   force =     0.00000000   -0.00002516    0.00143226
     atom    2 type  1   force =     0.00000000    0.00001640    0.00142614
     atom    3 type  1   force =     0.00000000    0.00001579    0.00142503
     atom    4 type  1   force =    -0.00003234   -0.00004837   -0.00134433
     atom    5 type  1   force =    -0.00000196   -0.00002690   -0.00134458
     atom    6 type  1   force =     0.00002160   -0.00002641   -0.00135950
     atom    7 type  1   force =    -0.00008138    0.00002413    0.00143367
     atom    8 type  1   force =    -0.00002537    0.00002303    0.00143185
     atom    9 type  1   force =    -0.00003726   -0.00004282    0.00143667
     atom   10 type  1   force =     0.00000000   -0.00006793   -0.00138508
     atom   11 type  1   force =     0.00000000   -0.00006860   -0.00137263
     atom   12 type  1   force =     0.00000000    0.00003461   -0.00139312
     atom   13 type  1   force =     0.00008138    0.00002413    0.00143367
     atom   14 type  1   force =     0.00002537    0.00002303    0.00143185
     atom   15 type  1   force =     0.00003726   -0.00004282    0.00143667
     atom   16 type  1   force =     0.00003234   -0.00004837   -0.00134433
     atom   17 type  1   force =     0.00000196   -0.00002690   -0.00134458
     atom   18 type  1   force =    -0.00002160   -0.00002641   -0.00135950
     atom   19 type  2   force =     0.00651996    0.00001125   -0.00180982
     atom   20 type  2   force =     0.00652495    0.00000083   -0.00181571
     atom   21 type  2   force =     0.00650064    0.00001456   -0.00179616
     atom   22 type  2   force =    -0.00648268   -0.00000396    0.00176328
     atom   23 type  2   force =    -0.00649378    0.00002137    0.00176323
     atom   24 type  2   force =    -0.00646179    0.00000433    0.00177791
     atom   25 type  2   force =     0.00647806    0.00000806    0.00177744
     atom   26 type  2   force =     0.00650864    0.00002084    0.00176078
[...]
    -1.9689  -1.8790  -1.7566  -1.7354  -1.7173  -1.6286  -1.5968  -1.5927
    -1.3951  -1.2173  -1.2166  -1.2137  -1.1221  -1.0866  -1.0165  -0.9851
    -0.9609  -0.9513  -0.8381

          k = 0.2000 0.5605 0.0000 (810447 PWs)   bands (ev):

   -60.6986 -60.6918 -60.6842 -60.6790 -60.6672 -60.6640 -60.6506 -60.6490
   -60.6470 -60.6436 -60.6417 -60.6401 -60.6381 -60.6381 -60.6231 -60.6210
   -60.6101 -60.6064 -36.0522 -36.0396 -36.0040 -35.9778 -35.9365 -35.9114
   -35.8964 -35.8963 -35.8940 -35.8934 -35.8652 -35.8474 -35.8302 -35.8130
   -35.8114 -35.7365 -35.7277 -35.7077 -35.7042 -35.6947 -35.6774 -35.6738
   -35.6623 -35.6603 -35.6525 -35.6416 -35.6392 -35.6254 -35.6226 -35.6195
   -35.6144 -35.6143 -35.6119 -35.6116 -35.6093 -35.5915 -35.5883 -35.5863
   -35.5699 -35.5692 -35.5674 -35.5596 -35.5199 -35.4957 -35.4391 -35.3931
   -35.3917 -35.3669 -35.3626 -35.3462 -35.2961 -35.2945 -35.2522 -35.2177
   -18.8098 -18.7205 -18.6818 -18.6050 -18.5675 -18.5027 -18.4593 -18.4550
   -18.4438 -18.4139 -18.4089 -18.3992 -18.3670 -18.3314 -18.3124 -18.2884
   -18.2707 -18.2597 -11.7328 -11.6879 -11.6209 -11.5779 -11.5717 -11.5676
   -11.4541 -11.3592 -11.3269 -11.2704 -11.2670 -11.1696 -10.8797 -10.8364
   -10.7558 -10.7301 -10.2581 -10.1722  -9.9768  -9.9016  -9.2718  -9.2285
    -9.2196  -9.0006  -8.9762  -8.8549  -8.8245  -8.8124  -8.7531  -8.7445
    -8.7341  -8.7102  -8.7068  -8.6418  -8.5296  -8.5249  -8.5143  -8.4744
    -8.4351  -8.3641  -8.3531  -8.3132  -8.2929  -8.2410  -8.2116  -8.1140
    -8.1063  -8.0839  -8.0741  -8.0352  -8.0179  -7.9893  -7.9545  -7.9384
    -7.9177  -7.9010  -7.8775  -7.8732  -7.8596  -7.7832  -7.7829  -7.6959
    -7.5001  -7.4995  -7.2249  -7.1871  -7.1812  -7.1607  -7.1572  -7.1534
    -7.1260  -7.1175  -6.9470  -6.9042  -6.5590  -6.5456  -6.5271  -6.1779
    -5.9890  -5.9554  -5.8558  -5.7033  -5.6189  -5.3848  -5.0853  -5.0649
    -4.8880  -4.8549  -4.4634  -4.3466  -4.2609  -4.1484  -4.1076  -4.0425
    -4.0253  -3.9981  -3.9839  -3.8845  -3.6709  -3.6011  -3.5576  -3.4849
    -3.4693  -3.3781  -3.1847  -2.6720  -2.4903  -2.4645  -2.4116  -2.3580
    -2.3332  -2.2868  -2.1497  -2.1127  -2.1021  -2.0179  -1.9774  -1.9603
    -1.9599  -1.9583  -1.9142  -1.7273  -1.6999  -1.6870  -1.6337  -1.5705
    -1.4751  -1.4270  -1.3772  -1.3035  -1.2697  -1.2677  -1.2621  -1.2598
    -1.2365  -1.0695  -0.9075

          k = 0.4000 0.0000 0.0000 (810298 PWs)   bands (ev):

   -60.7011 -60.6958 -60.6710 -60.6710 -60.6683 -60.6683 -60.6596 -60.6501
   -60.6501 -60.6488 -60.6447 -60.6447 -60.6266 -60.6265 -60.6239 -60.6238
   -60.6123 -60.6068 -36.0044 -36.0044 -35.9835 -35.9835 -35.9760 -35.9760
   -35.9449 -35.9449 -35.8933 -35.8596 -35.8289 -35.8289 -35.8153 -35.8001
   -35.7899 -35.7899 -35.7132 -35.7024 -35.6968 -35.6792 -35.6658 -35.6623
   -35.6623 -35.6576 -35.6576 -35.6545 -35.6545 -35.6522 -35.6265 -35.6265
   -35.6182 -35.6182 -35.6021 -35.6020 -35.5905 -35.5904 -35.5864 -35.5863
   -35.5830 -35.5760 -35.5736 -35.5597 -35.5438 -35.5095 -35.3881 -35.3881
   -35.3550 -35.3550 -35.3451 -35.3451 -35.3319 -35.3319 -35.2545 -35.2145
   -18.8607 -18.8124 -18.5755 -18.5348 -18.4972 -18.4971 -18.4919 -18.4882
   -18.4680 -18.4679 -18.3328 -18.3327 -18.3316 -18.3315 -18.3221 -18.3220
   -18.3144 -18.3143 -11.7122 -11.7122 -11.6392 -11.6391 -11.5189 -11.4481
   -11.4156 -11.4111 -11.4111 -11.2665 -11.2433 -11.2432 -10.8735 -10.8735
   -10.6562 -10.6562 -10.4188 -10.2316  -9.8630  -9.6120  -9.4766  -9.4766
    -9.2557  -9.2557  -9.1068  -9.0146  -8.8077  -8.7926  -8.6473  -8.6364
    -8.5348  -8.5188  -8.5188  -8.4746  -8.4746  -8.4736  -8.4735  -8.4422
    -8.4422  -8.4223  -8.3572  -8.3571  -8.3310  -8.3310  -8.1635  -8.1547
    -8.1399  -8.0438  -8.0438  -8.0259  -8.0259  -8.0043  -8.0043  -7.9742
    -7.9428  -7.9041  -7.9041  -7.8578  -7.5495  -7.5494  -7.5289  -7.5288
    -7.4208  -7.4208  -7.3913  -7.3545  -7.3545  -7.3103  -7.2847  -7.2847
    -7.1502  -7.1501  -6.9617  -6.8488  -6.8488  -6.7306  -6.6377  -6.6377
    -5.7045  -5.7045  -5.4932  -5.4932  -5.1490  -5.1350  -5.1350  -5.0541
    -5.0541  -4.6355  -4.6154  -4.6154  -4.5701  -4.5699  -4.4786  -4.4786
    -4.1945  -4.1945  -3.9255  -3.9255  -3.5519  -3.4501  -3.3721  -3.3721
    -3.2370  -3.0402  -3.0402  -3.0053  -2.8418  -2.8418  -2.7531  -2.7531
    -2.4348  -2.2105  -2.1428  -2.0744  -2.0744  -2.0586  -2.0586  -2.0077
    -1.9428  -1.9163  -1.7307  -1.5516  -1.5516  -1.4420  -1.3988  -1.3987
    -1.3422  -1.3202  -1.3202  -1.3040  -1.0094  -1.0094  -0.8387  -0.8387
    -0.7541  -0.7536  -0.6915

          k = 0.4000 0.2802 0.0000 (810351 PWs)   bands (ev):

   -60.6997 -60.6945 -60.6807 -60.6771 -60.6607 -60.6591 -60.6590 -60.6528
   -60.6485 -60.6477 -60.6456 -60.6444 -60.6332 -60.6315 -60.6212 -60.6176
   -60.6128 -60.6075 -36.0422 -36.0294 -35.9801 -35.9589 -35.9502 -35.9443
   -35.9345 -35.9221 -35.8955 -35.8900 -35.8750 -35.8496 -35.8107 -35.7832
   -35.7596 -35.7454 -35.7238 -35.7171 -35.7104 -35.7083 -35.6999 -35.6751
   -35.6712 -35.6573 -35.6549 -35.6414 -35.6388 -35.6374 -35.6325 -35.6214
   -35.6214 -35.6163 -35.5993 -35.5986 -35.5968 -35.5911 -35.5838 -35.5782
   -35.5780 -35.5680 -35.5537 -35.5534 -35.5444 -35.4888 -35.4212 -35.4023
   -35.3772 -35.3765 -35.3633 -35.3426 -35.2970 -35.2969 -35.2553 -35.2192
   -18.8398 -18.7925 -18.5947 -18.5608 -18.5599 -18.5212 -18.4810 -18.4770
   -18.4142 -18.3942 -18.3904 -18.3688 -18.3660 -18.3586 -18.3146 -18.3026
   -18.2854 -18.2742 -11.7638 -11.7187 -11.6391 -11.5411 -11.5155 -11.4570
   -11.4392 -11.4338 -11.3444 -11.3153 -11.2883 -11.1543 -11.0131 -10.7937
   -10.7345 -10.5230 -10.4415 -10.2521  -9.8454  -9.6175  -9.5951  -9.3862
    -9.2927  -9.0860  -9.0589  -8.9643  -8.8236  -8.8019  -8.6791  -8.6179
    -8.6047  -8.5967  -8.5960  -8.5344  -8.5290  -8.5188  -8.4770  -8.4233
    -8.4101  -8.3895  -8.3644  -8.3391  -8.3317  -8.2691  -8.1341  -8.1062
    -8.0967  -8.0781  -8.0638  -8.0553  -8.0016  -7.9665  -7.9572  -7.9542
    -7.9453  -7.9291  -7.8938  -7.8742  -7.8726  -7.8340  -7.6119  -7.5442
    -7.3893  -7.3451  -7.3046  -7.2576  -7.2490  -7.2380  -7.2198  -7.1782
    -7.1739  -7.0568  -6.9859  -6.9821  -6.7711  -6.7566  -6.6458  -6.4421
    -5.7243  -5.6223  -5.6166  -5.4956  -5.4801  -5.4320  -5.2999  -4.9447
    -4.9342  -4.7882  -4.6060  -4.5752  -4.4000  -4.2940  -4.2761  -4.2312
    -4.2068  -4.0352  -3.9753  -3.6929  -3.6549  -3.6223  -3.3779  -3.3334
    -3.3317  -3.1518  -2.9401  -2.8433  -2.7939  -2.7779  -2.7719  -2.7194
    -2.5974  -2.4476  -2.1388  -2.1129  -2.0731  -2.0433  -2.0282  -2.0156
    -1.8951  -1.7885  -1.6251  -1.5851  -1.5508  -1.4977  -1.4546  -1.4310
    -1.3852  -1.3833  -1.3573  -1.3207  -1.3073  -1.1924  -1.1740  -0.9376
    -0.9159  -0.8294  -0.6533

          k = 0.4000 0.5605 0.0000 (810398 PWs)   bands (ev):

   -60.6956 -60.6907 -60.6891 -60.6848 -60.6576 -60.6554 -60.6503 -60.6497
   -60.6478 -60.6467 -60.6459 -60.6447 -60.6410 -60.6404 -60.6172 -60.6144
   -60.6128 -60.6095 -36.0599 -36.0556 -35.9677 -35.9374 -35.9331 -35.9289
   -35.9188 -35.9041 -35.9034 -35.8971 -35.8848 -35.8507 -35.8141 -35.7940
   -35.7764 -35.7623 -35.7491 -35.7074 -35.7023 -35.6928 -35.6901 -35.6898
   -35.6813 -35.6591 -35.6462 -35.6390 -35.6300 -35.6291 -35.6253 -35.6248
   -35.6239 -35.6178 -35.6161 -35.6105 -35.6098 -35.6056 -35.5790 -35.5750
   -35.5719 -35.5659 -35.5323 -35.5082 -35.4856 -35.4657 -35.4619 -35.4483
   -35.4287 -35.4089 -35.3471 -35.3401 -35.2732 -35.2602 -35.2596 -35.2338
   -18.7808 -18.7364 -18.6943 -18.6542 -18.5196 -18.4831 -18.4603 -18.4509
   -18.4463 -18.4287 -18.4092 -18.4034 -18.3543 -18.3351 -18.3211 -18.3059
   -18.2584 -18.2547 -11.7843 -11.7690 -11.5580 -11.5051 -11.4867 -11.4847
   -11.4390 -11.4133 -11.3717 -11.3495 -11.2546 -11.1426 -11.0482 -10.9266
   -10.6082 -10.5070 -10.4047 -10.3116  -9.7961  -9.7209  -9.5491  -9.4808
    -9.0726  -8.9213  -8.8854  -8.8363  -8.8345  -8.8187  -8.7958  -8.7905
    -8.7309  -8.7188  -8.6735  -8.5980  -8.5729  -8.5632  -8.4568  -8.4265
    -8.4163  -8.4089  -8.3564  -8.3285  -8.2161  -8.1950  -8.1704  -8.1073
    -8.0872  -8.0458  -8.0413  -8.0212  -7.9892  -7.9877  -7.9854  -7.9675
    -7.9490  -7.9306  -7.9273  -7.9207  -7.9189  -7.8970  -7.7954  -7.7388
    -7.3832  -7.3709  -7.2883  -7.2617  -7.1117  -7.0933  -7.0835  -7.0814
    -7.0394  -7.0374  -7.0234  -6.9980  -6.8259  -6.8073  -6.3832  -6.1912
    -6.0433  -5.8770  -5.6655  -5.5182  -5.4644  -5.3863  -5.3147  -5.2088
    -5.2035  -5.0655  -4.1606  -4.1309  -4.1260  -4.0766  -4.0764  -4.0758
    -4.0662  -3.9235  -3.8452  -3.8138  -3.7591  -3.6230  -3.6097  -3.3410
    -3.3329  -3.2142  -3.0956  -2.9251  -2.7925  -2.6997  -2.5655  -2.5534
    -2.4842  -2.2821  -2.2363  -2.1321  -2.1105  -2.0967  -2.0735  -2.0595
    -2.0499  -2.0430  -2.0339  -1.8771  -1.5381  -1.4932  -1.4849  -1.4689
    -1.4264  -1.3974  -1.3652  -1.3444  -1.2506  -1.1624  -1.1604  -1.0023
    -0.8559  -0.7874  -0.7808

     the Fermi energy is    -3.7228 ev

!    total energy              =   -2464.42943700 Ry
     estimated scf accuracy    <          8.7E-11 Ry
     smearing contrib. (-TS)   =      -0.01365397 Ry
     internal energy E=F+TS    =   -2464.41578303 Ry

     The total energy is F=E-TS. E is the sum of the following terms:
     one-electron contribution =  -39862.24614103 Ry
     hartree contribution      =   19868.26010202 Ry
     xc contribution           =    -370.37898594 Ry
     ewald contribution        =   17899.94924193 Ry

     convergence has been achieved in  16 iterations

     Forces acting on atoms (cartesian axes, Ry/au):

     atom    1 type  1   force =     0.00000000    0.00000987    0.00005460
     atom    2 type  1   force =     0.00000000    0.00000144    0.00005195
     atom    3 type  1   force =     0.00000000   -0.00000837    0.00005352
     atom    4 type  1   force =     0.00000247    0.00000588   -0.00005777
     atom    5 type  1   force =    -0.00000843   -0.00000073   -0.00005810
     atom    6 type  1   force =    -0.00000672    0.00000458   -0.00004549
     atom    7 type  1   force =     0.00000260   -0.00000201    0.00005328
     atom    8 type  1   force =    -0.00000268   -0.00000063    0.00005564
     atom    9 type  1   force =     0.00000996    0.00000584    0.00005856
     atom   10 type  1   force =     0.00000000    0.00000148   -0.00005247
     atom   11 type  1   force =     0.00000000    0.00001204   -0.00005061
     atom   12 type  1   force =     0.00000000   -0.00000357   -0.00004179
     atom   13 type  1   force =    -0.00000260   -0.00000201    0.00005328
     atom   14 type  1   force =     0.00000268   -0.00000063    0.00005564
     atom   15 type  1   force =    -0.00000996    0.00000584    0.00005856
     atom   16 type  1   force =    -0.00000247    0.00000588   -0.00005777
     atom   17 type  1   force =     0.00000843   -0.00000073   -0.00005810
     atom   18 type  1   force =     0.00000672    0.00000458   -0.00004549
     atom   19 type  2   force =    -0.00003230    0.00000012   -0.00000376
     atom   20 type  2   force =    -0.00002118    0.00000352   -0.00000022
     atom   21 type  2   force =    -0.00001929    0.00000119    0.00001001
     atom   22 type  2   force =     0.00001886   -0.00000674   -0.00000393
     atom   23 type  2   force =     0.00000487   -0.00000098   -0.00000460
     atom   24 type  2   force =     0.00001855   -0.00000333   -0.00000189
     atom   25 type  2   force =    -0.00002619   -0.00000414   -0.00000362
     atom   26 type  2   force =    -0.00000770   -0.00000237   -0.00000646
     atom   27 type  2   force =    -0.00002089   -0.00000470   -0.00000639
     atom   28 type  2   force =     0.00003619    0.00000057    0.00000152
     atom   29 type  2   force =    -0.00004118    0.00000315    0.00000275
     atom   30 type  2   force =     0.00003232    0.00000197    0.00000231
     atom   31 type  2   force =    -0.00003735   -0.00000055    0.00000307
     atom   32 type  2   force =     0.00002036    0.00000200    0.00000820
     atom   33 type  2   force =    -0.00002069    0.00000205    0.00001069
     atom   34 type  2   force =     0.00001240   -0.00000302   -0.00000585
     atom   35 type  2   force =    -0.00001240   -0.00000302   -0.00000585
     atom   36 type  2   force =    -0.00000138   -0.00000415   -0.00000495
     atom   37 type  2   force =     0.00000138   -0.00000415   -0.00000495
     atom   38 type  2   force =     0.00001880   -0.00000396   -0.00001062
     atom   39 type  2   force =    -0.00001880   -0.00000396   -0.00001062
     atom   40 type  2   force =     0.00004118    0.00000315    0.00000275
     atom   41 type  2   force =    -0.00003619    0.00000057    0.00000152
     atom   42 type  2   force =     0.00003735   -0.00000055    0.00000307
     atom   43 type  2   force =    -0.00003232    0.00000197    0.00000231
     atom   44 type  2   force =     0.00002069    0.00000205    0.00001069
     atom   45 type  2   force =    -0.00002036    0.00000200    0.00000820
     atom   46 type  2   force =     0.00002089   -0.00000470   -0.00000639
     atom   47 type  2   force =    -0.00001886   -0.00000674   -0.00000393
     atom   48 type  2   force =     0.00000770   -0.00000237   -0.00000646
     atom   49 type  2   force =     0.00001929    0.00000119    0.00001001
     atom   50 type  2   force =     0.00002118    0.00000352   -0.00000022
     atom   51 type  2   force =     0.00003230    0.00000012   -0.00000376
     atom   52 type  2   force =     0.00002619   -0.00000414   -0.00000362
     atom   53 type  2   force =    -0.00001855   -0.00000333   -0.00000189
     atom   54 type  2   force =    -0.00000487   -0.00000098   -0.00000460

     Total force =     0.000275     Total SCF correction =     0.000014
     Energy error            =      2.0E-07 Ry
     Gradient error          =      5.9E-05 Ry/Bohr

     bfgs converged in   7 scf cycles and   6 bfgs steps
     (criteria: energy <  1.0E-05 Ry, force <  1.0E-04 Ry/Bohr)

     End of BFGS Geometry Optimization

     Final energy             =   -2464.4294369982 Ry

     File /home/fernando/serse/temp/NB.bfgs deleted, as requested
Begin final coordinates

ATOMIC_POSITIONS (angstrom)
Nb            0.0000000000        1.7585964145        1.2423850007
Nb            0.0000000000        5.2986823826        1.2423859290
Nb            0.0000000000        8.8386326551        1.2423775624
Nb            2.4799880746       10.6086071129        1.0722662582
Nb            2.4799975925        7.0686515705        1.0722619048
Nb            2.4799940209        3.5286521416        1.0722866567
Nb            4.9599817873        1.7586066523        1.2423802223
Nb            4.9599853771        5.2986854369        1.2423791173
Nb            4.9599752313        8.8386205014        1.2423808728
Nb            7.4399669640       10.6086053099        1.0722769931
Nb            7.4399669640        7.0686442299        1.0722774214
Nb            7.4399669640        3.5286626318        1.0722943928
Nb            9.9199521407        1.7586066523        1.2423802223
Nb            9.9199485509        5.2986854369        1.2423791173
Nb            9.9199586967        8.8386205014        1.2423808728
Nb           12.3999458534       10.6086071129        1.0722662582
Nb           12.3999363355        7.0686515705        1.0722619048
Nb           12.3999399071        3.5286521416        1.0722866567
C             0.6826147658       10.6086086285        0.0229190158
C             0.6826126653        7.0686259970        0.0229292151
C             0.6826206087        3.5286405866        0.0229911680
C             1.7973828537        1.7586409827        2.2916975424
C             1.7973924123        5.2986828090        2.2916829039
C             1.7973739640        8.8386403086        2.2917434862
C             3.1626218543        8.8386389693        2.2917511977
C             3.1626037459        5.2986871910        2.2916866038
C             3.1626085321        1.7586384950        2.2917021692
C             4.2773721631       10.6086031486        0.0229076129
C             5.6426032030       10.6085969734        0.0229076443
C             4.2773735057        7.0686322277        0.0229130290
C             5.6426084621        7.0686367019        0.0229163059
C             4.2773622884        3.5286416278        0.0229905843
C             5.6426051344        3.5286434067        0.0229874249
C             6.7573574687        1.7586363734        2.2917049482
C             8.1225764593        1.7586363734        2.2917049482
C             6.7573634943        5.2986898154        2.2916961759
C             8.1225704337        5.2986898154        2.2916961759
C             6.7573454632        8.8386391731        2.2917805421
C             8.1225884648        8.8386391731        2.2917805421
C             9.2373307250       10.6085969734        0.0229076443
C            10.6025617649       10.6086031486        0.0229076129
C             9.2373254659        7.0686367019        0.0229163059
C            10.6025604223        7.0686322277        0.0229130290
C             9.2373287936        3.5286434067        0.0229874249
C            10.6025716396        3.5286416278        0.0229905843
C            11.7173253959        1.7586384950        2.2917021692
C            13.0825510743        1.7586409827        2.2916975424
C            11.7173301821        5.2986871910        2.2916866038
C            14.1973133193        3.5286405866        0.0229911680
C            14.1973212627        7.0686259970        0.0229292151
C            14.1973191622       10.6086086285        0.0229190158
C            11.7173120737        8.8386389693        2.2917511977
C            13.0825599640        8.8386403086        2.2917434862
C            13.0825415157        5.2986828090        2.2916829039
End final coordinates



     Writing output data file /home/fernando/serse/temp/NB.save/
 
     init_run     :    139.96s CPU    282.30s WALL (       1 calls)
     electrons    :  68124.63s CPU 136832.70s WALL (       7 calls)
     update_pot   :     23.17s CPU     46.54s WALL (       6 calls)
     forces       :    475.55s CPU    952.76s WALL (       7 calls)

     Called by init_run:
     wfcinit      :    132.29s CPU    266.75s WALL (       1 calls)
     potinit      :      2.28s CPU      4.70s WALL (       1 calls)
     hinit0       :      1.53s CPU      3.10s WALL (       1 calls)

     Called by electrons:
     c_bands      :  60967.48s CPU 122433.54s WALL (     146 calls)
     sum_band     :   6727.48s CPU  13486.60s WALL (     146 calls)
     v_of_rho     :    108.36s CPU    224.59s WALL (     149 calls)
     mix_rho      :    286.63s CPU    581.04s WALL (     146 calls)

     Called by c_bands:
     init_us_2    :    163.92s CPU    320.74s WALL (    2700 calls)
     cegterg      :  59840.79s CPU 120175.32s WALL (    1315 calls)

     Called by *egterg:
     cdiaghg      :   1032.06s CPU   2072.68s WALL (    7830 calls)
     h_psi        :  38433.13s CPU  77130.29s WALL (    7929 calls)
     g_psi        :     70.72s CPU    141.76s WALL (    6605 calls)

     Called by h_psi:
     h_psi:calbec :   5707.30s CPU  11450.40s WALL (    7929 calls)
     vloc_psi     :  29782.99s CPU  59707.32s WALL (    7929 calls)
     add_vuspsi   :   2828.64s CPU   5603.57s WALL (    7929 calls)

     General routines
     calbec       :   6124.64s CPU  12287.76s WALL (    8181 calls)
     fft          :     54.84s CPU    109.48s WALL (    1507 calls)
     ffts         :      4.48s CPU      9.07s WALL (     146 calls)
     fftw         :  30677.50s CPU  64463.49s WALL ( 1839390 calls)
 
     Parallel routines
 
     PWSCF        :     19h37m CPU   1d15h28m WALL

 
   This run was terminated on:  17:16:45   6Mar2025            

=------------------------------------------------------------------------------=
   JOB DONE.
=------------------------------------------------------------------------------=
