
     Program PWSCF v.6.8 starts on  7Feb2025 at 16: 4:32 

     This program is part of the open-source Quantum ESPRESSO suite
     for quantum simulation of materials; please cite
         "P. Giannozzi et al., J. Phys.:Condens. Matter 21 395502 (2009);
         "P. Giannozzi et al., J. Phys.:Condens. Matter 29 465901 (2017);
         "P. Giannozzi et al., J. Chem. Phys. 152 154105 (2020);
          URL http://www.quantum-espresso.org", 
     in publications or presentations arising from this work. More details at
     http://www.quantum-espresso.org/quote

     Parallel version (MPI & OpenMP), running on      24 processor cores
     Number of MPI processes:                24
     Threads/MPI process:                     1

     MPI processes distributed on     1 nodes
     R & G space division:  proc/nbgrp/npool/nimage =      24
     184710 MiB available memory on the printing compute node when the environment starts
 
     Waiting for input...
     Reading input from standard input

     Current dimensions of program PWSCF are:
     Max number of different atomic species (ntypx) = 10
     Max number of k-points (npk) =  40000
     Max angular momentum in pseudopotentials (lmaxx) =  4
     Found symmetry operation: I + (  0.0000  0.3333  0.0000)
     This is a supercell, fractional translations are disabled

     Subspace diagonalization in iterative solution of the eigenvalue problem:
     a serial algorithm will be used

 
     Parallelization info
     --------------------
     sticks:   dense  smooth     PW     G-vecs:    dense   smooth      PW
     Min         598     598    154               193268   193268   25412
     Max         599     599    155               193283   193283   25425
     Sum       14375   14375   3711              4638655  4638655  610033
 
     Using Slab Decomposition
 

     Title: 
     NB relax                                                                   


     bravais-lattice index     =            8
     lattice parameter (alat)  =      28.1190  a.u.
     unit-cell volume          =   47987.7937 (a.u.)^3
     number of atoms/cell      =           54
     number of atomic types    =            2
     number of electrons       =       378.00
     number of Kohn-Sham states=          227
     kinetic-energy cutoff     =      80.0000  Ry
     charge density cutoff     =     320.0000  Ry
     scf convergence threshold =      1.0E-08
     mixing beta               =       0.7000
     number of iterations used =            8  plain     mixing
     energy convergence thresh.=      1.0E-05
     force convergence thresh. =      1.0E-04
     Exchange-correlation= SLA-PW-PBX-PBC
                           (   1   4   3   4   0   0   0)
     nstep                     =          100


     celldm(1)=  28.119000  celldm(2)=   0.713710  celldm(3)=   3.024194
     celldm(4)=   0.000000  celldm(5)=   0.000000  celldm(6)=   0.000000

     crystal axes: (cart. coord. in units of alat)
               a(1) = (   1.000000   0.000000   0.000000 )  
               a(2) = (   0.000000   0.713710   0.000000 )  
               a(3) = (   0.000000   0.000000   3.024194 )  

     reciprocal axes: (cart. coord. in units 2 pi/alat)
               b(1) = (  1.000000  0.000000  0.000000 )  
               b(2) = (  0.000000  1.401130  0.000000 )  
               b(3) = (  0.000000  0.000000  0.330667 )  


     PseudoPot. # 1 for Nb read from file:
     /home/fernando/serse/pseudos/Nb.pbe-sp-hgh.UPF
     MD5 check sum: 9806bd744c6e87f68d8a90a6c9e3b9fe
     Pseudo is Norm-conserving, Zval = 13.0
     Generated in analytical, separable form
     Using radial grid of 1227 points,  6 beta functions with: 
                l(1) =   0
                l(2) =   0
                l(3) =   1
                l(4) =   1
                l(5) =   2
                l(6) =   2

     PseudoPot. # 2 for C  read from file:
     /home/fernando/serse/pseudos/C.pbe-hgh.UPF
     MD5 check sum: ca26ff84b356733038fc2f5c468d1892
     Pseudo is Norm-conserving, Zval =  4.0
     Generated in analytical, separable form
     Using radial grid of 1073 points,  1 beta functions with: 
                l(1) =   0

     atomic species   valence    mass     pseudopotential
        Nb            13.00    92.90638     Nb( 1.00)
        C              4.00    12.01100     C ( 1.00)

      2 Sym. Ops. (no inversion) found



   Cartesian axes

     site n.     atom                  positions (alat units)
         1           Nb  tau(   1) = (   0.0000000   0.1181889   0.0835051  )
         2           Nb  tau(   2) = (   0.0000000   0.3560922   0.0835051  )
         3           Nb  tau(   3) = (   0.0000000   0.5939954   0.0835051  )
         4           Nb  tau(   4) = (   0.1666667   0.7129537   0.0720485  )
         5           Nb  tau(   5) = (   0.1666667   0.4750505   0.0720485  )
         6           Nb  tau(   6) = (   0.1666667   0.2371473   0.0720485  )
         7           Nb  tau(   7) = (   0.3333333   0.1181889   0.0835051  )
         8           Nb  tau(   8) = (   0.3333333   0.3560922   0.0835051  )
         9           Nb  tau(   9) = (   0.3333333   0.5939954   0.0835051  )
        10           Nb  tau(  10) = (   0.5000000   0.7129537   0.0720485  )
        11           Nb  tau(  11) = (   0.5000000   0.4750505   0.0720485  )
        12           Nb  tau(  12) = (   0.5000000   0.2371473   0.0720485  )
        13           Nb  tau(  13) = (   0.6666667   0.1181889   0.0835051  )
        14           Nb  tau(  14) = (   0.6666667   0.3560922   0.0835051  )
        15           Nb  tau(  15) = (   0.6666667   0.5939954   0.0835051  )
        16           Nb  tau(  16) = (   0.8333333   0.7129537   0.0720485  )
        17           Nb  tau(  17) = (   0.8333333   0.4750505   0.0720485  )
        18           Nb  tau(  18) = (   0.8333333   0.2371473   0.0720485  )
        19           C   tau(  19) = (   0.0460841   0.7129454   0.0019271  )
        20           C   tau(  20) = (   0.0460841   0.4750422   0.0019271  )
        21           C   tau(  21) = (   0.0460841   0.2371390   0.0019271  )
        22           C   tau(  22) = (   0.1205839   0.1181902   0.1536294  )
        23           C   tau(  23) = (   0.1205839   0.3560935   0.1536294  )
        24           C   tau(  24) = (   0.1205839   0.5939967   0.1536294  )
        25           C   tau(  25) = (   0.2127494   0.5939967   0.1536294  )
        26           C   tau(  26) = (   0.2127494   0.3560935   0.1536294  )
        27           C   tau(  27) = (   0.2127494   0.1181902   0.1536294  )
        28           C   tau(  28) = (   0.2872492   0.7129454   0.0019271  )
        29           C   tau(  29) = (   0.3794174   0.7129454   0.0019271  )
        30           C   tau(  30) = (   0.2872492   0.4750422   0.0019271  )
        31           C   tau(  31) = (   0.3794174   0.4750422   0.0019271  )
        32           C   tau(  32) = (   0.2872492   0.2371390   0.0019271  )
        33           C   tau(  33) = (   0.3794174   0.2371390   0.0019271  )
        34           C   tau(  34) = (   0.4539172   0.1181902   0.1536294  )
        35           C   tau(  35) = (   0.5460828   0.1181902   0.1536294  )
        36           C   tau(  36) = (   0.4539172   0.3560935   0.1536294  )
        37           C   tau(  37) = (   0.5460828   0.3560935   0.1536294  )
        38           C   tau(  38) = (   0.4539172   0.5939967   0.1536294  )
        39           C   tau(  39) = (   0.5460828   0.5939967   0.1536294  )
        40           C   tau(  40) = (   0.6205826   0.7129454   0.0019271  )
        41           C   tau(  41) = (   0.7127508   0.7129454   0.0019271  )
        42           C   tau(  42) = (   0.6205826   0.4750422   0.0019271  )
        43           C   tau(  43) = (   0.7127508   0.4750422   0.0019271  )
        44           C   tau(  44) = (   0.6205826   0.2371390   0.0019271  )
        45           C   tau(  45) = (   0.7127508   0.2371390   0.0019271  )
        46           C   tau(  46) = (   0.7872505   0.1181902   0.1536294  )
        47           C   tau(  47) = (   0.8794161   0.1181902   0.1536294  )
        48           C   tau(  48) = (   0.7872505   0.3560935   0.1536294  )
        49           C   tau(  49) = (   0.9539159   0.2371390   0.0019271  )
        50           C   tau(  50) = (   0.9539159   0.4750422   0.0019271  )
        51           C   tau(  51) = (   0.9539159   0.7129454   0.0019271  )
        52           C   tau(  52) = (   0.7872505   0.5939967   0.1536294  )
        53           C   tau(  53) = (   0.8794161   0.5939967   0.1536294  )
        54           C   tau(  54) = (   0.8794161   0.3560935   0.1536294  )

     number of k points=     9  Gaussian smearing, width (Ry)=  0.0100
                       cart. coord. in units 2pi/alat
        k(    1) = (   0.0000000   0.0000000   0.0000000), wk =   0.0800000
        k(    2) = (   0.0000000   0.2802260   0.0000000), wk =   0.1600000
        k(    3) = (   0.0000000   0.5604520   0.0000000), wk =   0.1600000
        k(    4) = (   0.2000000   0.0000000   0.0000000), wk =   0.1600000
        k(    5) = (   0.2000000   0.2802260   0.0000000), wk =   0.3200000
        k(    6) = (   0.2000000   0.5604520   0.0000000), wk =   0.3200000
        k(    7) = (   0.4000000   0.0000000   0.0000000), wk =   0.1600000
        k(    8) = (   0.4000000   0.2802260   0.0000000), wk =   0.3200000
        k(    9) = (   0.4000000   0.5604520   0.0000000), wk =   0.3200000

     Dense  grid:  4638655 G-vectors     FFT dimensions: ( 162, 120, 486)

     Estimated max dynamical RAM per process >       1.40 GB

     Estimated total dynamical RAM >      33.57 GB

     Initial potential from superposition of free atoms

     starting charge  143.99850, renormalised to  378.00000

     negative rho (up, down):  4.954E-03 0.000E+00
     Starting wfcs are  144 randomized atomic wfcs +   83 random wfcs

     total cpu time spent up to now is       88.6 secs

     Self-consistent Calculation

     iteration #  1     ecut=    80.00 Ry     beta= 0.70
     Davidson diagonalization with overlap
     ethr =  1.00E-02,  avg # of iterations = 16.6

     negative rho (up, down):  9.540E-04 0.000E+00

     total cpu time spent up to now is     1125.5 secs

     total energy              =   -1530.70468166 Ry
     estimated scf accuracy    <    3813.83064140 Ry

     iteration #  2     ecut=    80.00 Ry     beta= 0.70
     Davidson diagonalization with overlap
     ethr =  1.00E-02,  avg # of iterations = 15.3

     total cpu time spent up to now is     2142.8 secs

     total energy              =   -1463.42802934 Ry
     estimated scf accuracy    <    2379.80466129 Ry

     iteration #  3     ecut=    80.00 Ry     beta= 0.70
     Davidson diagonalization with overlap
     c_bands:  1 eigenvalues not converged
     c_bands:  2 eigenvalues not converged
     c_bands:  1 eigenvalues not converged
     ethr =  1.00E-02,  avg # of iterations = 19.7

     total cpu time spent up to now is     3285.0 secs

     total energy              =   -2485.19305468 Ry
     estimated scf accuracy    <     470.46010001 Ry

     iteration #  4     ecut=    80.00 Ry     beta= 0.70
     Davidson diagonalization with overlap
     ethr =  1.00E-02,  avg # of iterations =  8.8

     total cpu time spent up to now is     3719.3 secs

     total energy              =   -2496.36980130 Ry
     estimated scf accuracy    <      82.53486275 Ry

     iteration #  5     ecut=    80.00 Ry     beta= 0.70
     Davidson diagonalization with overlap
     ethr =  1.00E-02,  avg # of iterations =  3.0

     total cpu time spent up to now is     3989.2 secs

     total energy              =   -2499.00979890 Ry
     estimated scf accuracy    <     123.08796819 Ry

     iteration #  6     ecut=    80.00 Ry     beta= 0.70
     Davidson diagonalization with overlap
     ethr =  1.00E-02,  avg # of iterations =  1.0

     total cpu time spent up to now is     4214.7 secs

     total energy              =   -2489.03904023 Ry
     estimated scf accuracy    <      81.39640250 Ry

     iteration #  7     ecut=    80.00 Ry     beta= 0.70
     Davidson diagonalization with overlap
     ethr =  1.00E-02,  avg # of iterations =  1.0

     total cpu time spent up to now is     4451.8 secs

     total energy              =   -2479.93348896 Ry
     estimated scf accuracy    <      56.62685189 Ry

     iteration #  8     ecut=    80.00 Ry     beta= 0.70
     Davidson diagonalization with overlap
     ethr =  1.00E-02,  avg # of iterations =  1.0

     total cpu time spent up to now is     4677.3 secs

     total energy              =   -2474.55119782 Ry
     estimated scf accuracy    <      37.92351552 Ry

     iteration #  9     ecut=    80.00 Ry     beta= 0.70
     Davidson diagonalization with overlap
     ethr =  1.00E-02,  avg # of iterations =  1.0

     total cpu time spent up to now is     4905.8 secs

     total energy              =   -2471.68425330 Ry
     estimated scf accuracy    <      27.84491388 Ry

     iteration # 10     ecut=    80.00 Ry     beta= 0.70
     Davidson diagonalization with overlap
     ethr =  7.37E-03,  avg # of iterations =  1.1

     total cpu time spent up to now is     5126.1 secs

     total energy              =   -2460.38561524 Ry
     estimated scf accuracy    <      18.06100292 Ry

     iteration # 11     ecut=    80.00 Ry     beta= 0.70
     Davidson diagonalization with overlap
     ethr =  4.78E-03,  avg # of iterations =  5.4

     total cpu time spent up to now is     5431.9 secs

     total energy              =   -2464.03912893 Ry
     estimated scf accuracy    <       3.01690369 Ry

     iteration # 12     ecut=    80.00 Ry     beta= 0.70
     Davidson diagonalization with overlap
     ethr =  7.98E-04,  avg # of iterations = 10.9

     total cpu time spent up to now is     5745.6 secs

     total energy              =   -2464.11657544 Ry
     estimated scf accuracy    <       1.29949515 Ry

     iteration # 13     ecut=    80.00 Ry     beta= 0.70
     Davidson diagonalization with overlap
     c_bands:  2 eigenvalues not converged
     ethr =  3.44E-04,  avg # of iterations =  8.8

     total cpu time spent up to now is     6008.8 secs

     total energy              =   -2463.91921070 Ry
     estimated scf accuracy    <       0.65684852 Ry

     iteration # 14     ecut=    80.00 Ry     beta= 0.70
     Davidson diagonalization with overlap
     ethr =  1.74E-04,  avg # of iterations =  7.2

     total cpu time spent up to now is     6367.2 secs

     total energy              =   -2464.01644522 Ry
     estimated scf accuracy    <       1.24855429 Ry

     iteration # 15     ecut=    80.00 Ry     beta= 0.70
     Davidson diagonalization with overlap
     ethr =  1.74E-04,  avg # of iterations =  2.8

     negative rho (up, down):  1.303E-06 0.000E+00

     total cpu time spent up to now is     6621.3 secs

     total energy              =   -2464.11020878 Ry
     estimated scf accuracy    <       0.29157681 Ry

     iteration # 16     ecut=    80.00 Ry     beta= 0.70
     Davidson diagonalization with overlap
     c_bands:  2 eigenvalues not converged
     c_bands:  1 eigenvalues not converged
     ethr =  7.71E-05,  avg # of iterations = 11.6

     total cpu time spent up to now is     6922.1 secs

     total energy              =   -2464.11625125 Ry
     estimated scf accuracy    <       0.23658372 Ry

     iteration # 17     ecut=    80.00 Ry     beta= 0.70
     Davidson diagonalization with overlap
     ethr =  6.26E-05,  avg # of iterations =  2.2

     total cpu time spent up to now is     7167.2 secs

     total energy              =   -2464.12891565 Ry
     estimated scf accuracy    <       0.05532719 Ry

     iteration # 18     ecut=    80.00 Ry     beta= 0.70
     Davidson diagonalization with overlap
     c_bands:  3 eigenvalues not converged
     c_bands:  3 eigenvalues not converged
     c_bands:  1 eigenvalues not converged
     c_bands:  3 eigenvalues not converged
     ethr =  1.46E-05,  avg # of iterations = 15.8

     total cpu time spent up to now is     7521.4 secs

     total energy              =   -2464.13559375 Ry
     estimated scf accuracy    <       0.01479158 Ry

     iteration # 19     ecut=    80.00 Ry     beta= 0.70
     Davidson diagonalization with overlap
     c_bands:  2 eigenvalues not converged
     ethr =  3.91E-06,  avg # of iterations = 11.7

     total cpu time spent up to now is     7850.4 secs

     total energy              =   -2464.13731886 Ry
     estimated scf accuracy    <       0.00622073 Ry

     iteration # 20     ecut=    80.00 Ry     beta= 0.70
     Davidson diagonalization with overlap
     c_bands:  1 eigenvalues not converged
     ethr =  1.65E-06,  avg # of iterations =  6.0

     total cpu time spent up to now is     8116.1 secs

     total energy              =   -2464.13758653 Ry
     estimated scf accuracy    <       0.00518827 Ry

     iteration # 21     ecut=    80.00 Ry     beta= 0.70
     Davidson diagonalization with overlap
     ethr =  1.37E-06,  avg # of iterations =  3.3

     total cpu time spent up to now is     8354.7 secs

     total energy              =   -2464.13802530 Ry
     estimated scf accuracy    <       0.00134447 Ry

     iteration # 22     ecut=    80.00 Ry     beta= 0.70
     Davidson diagonalization with overlap
     ethr =  3.56E-07,  avg # of iterations =  2.1

     total cpu time spent up to now is     8607.2 secs

     total energy              =   -2464.13815673 Ry
     estimated scf accuracy    <       0.00022242 Ry

     iteration # 23     ecut=    80.00 Ry     beta= 0.70
     Davidson diagonalization with overlap
     ethr =  5.88E-08,  avg # of iterations =  6.0

     total cpu time spent up to now is     8904.8 secs

     total energy              =   -2464.13819540 Ry
     estimated scf accuracy    <       0.00021622 Ry

     iteration # 24     ecut=    80.00 Ry     beta= 0.70
     Davidson diagonalization with overlap
     ethr =  5.72E-08,  avg # of iterations =  2.8

     total cpu time spent up to now is     9154.8 secs

     total energy              =   -2464.13821274 Ry
     estimated scf accuracy    <       0.00009652 Ry

     iteration # 25     ecut=    80.00 Ry     beta= 0.70
     Davidson diagonalization with overlap
     ethr =  2.55E-08,  avg # of iterations =  2.0

     total cpu time spent up to now is     9393.7 secs

     total energy              =   -2464.13821718 Ry
     estimated scf accuracy    <       0.00003836 Ry

     iteration # 26     ecut=    80.00 Ry     beta= 0.70
     Davidson diagonalization with overlap
     ethr =  1.01E-08,  avg # of iterations =  6.0

     total cpu time spent up to now is     9696.7 secs

     total energy              =   -2464.13819889 Ry
     estimated scf accuracy    <       0.00048849 Ry

     iteration # 27     ecut=    80.00 Ry     beta= 0.70
     Davidson diagonalization with overlap
     ethr =  1.01E-08,  avg # of iterations =  5.4

     total cpu time spent up to now is     9969.3 secs

     total energy              =   -2464.13822371 Ry
     estimated scf accuracy    <       0.00004151 Ry

     iteration # 28     ecut=    80.00 Ry     beta= 0.70
     Davidson diagonalization with overlap
     ethr =  1.01E-08,  avg # of iterations =  2.0

     total cpu time spent up to now is    10204.7 secs

     total energy              =   -2464.13822691 Ry
     estimated scf accuracy    <       0.00000294 Ry

     iteration # 29     ecut=    80.00 Ry     beta= 0.70
     Davidson diagonalization with overlap
     ethr =  7.79E-10,  avg # of iterations =  6.0

     total cpu time spent up to now is    10526.5 secs

     total energy              =   -2464.13822744 Ry
     estimated scf accuracy    <       0.00000287 Ry

     iteration # 30     ecut=    80.00 Ry     beta= 0.70
     Davidson diagonalization with overlap
     ethr =  7.59E-10,  avg # of iterations =  3.3

     total cpu time spent up to now is    10782.5 secs

     total energy              =   -2464.13822755 Ry
     estimated scf accuracy    <       0.00000225 Ry

     iteration # 31     ecut=    80.00 Ry     beta= 0.70
     Davidson diagonalization with overlap
     ethr =  5.96E-10,  avg # of iterations =  6.0

     total cpu time spent up to now is    11057.0 secs

     total energy              =   -2464.13822750 Ry
     estimated scf accuracy    <       0.00000536 Ry

     iteration # 32     ecut=    80.00 Ry     beta= 0.70
     Davidson diagonalization with overlap
     ethr =  5.96E-10,  avg # of iterations =  2.8

     total cpu time spent up to now is    11294.2 secs

     total energy              =   -2464.13822795 Ry
     estimated scf accuracy    <       0.00000022 Ry

     iteration # 33     ecut=    80.00 Ry     beta= 0.70
     Davidson diagonalization with overlap
     ethr =  5.81E-11,  avg # of iterations =  6.0

     total cpu time spent up to now is    11616.3 secs

     total energy              =   -2464.13822795 Ry
     estimated scf accuracy    <       0.00000044 Ry

     iteration # 34     ecut=    80.00 Ry     beta= 0.70
     Davidson diagonalization with overlap
     ethr =  5.81E-11,  avg # of iterations =  3.0

     total cpu time spent up to now is    11862.9 secs

     total energy              =   -2464.13822799 Ry
     estimated scf accuracy    <       0.00000004 Ry

     iteration # 35     ecut=    80.00 Ry     beta= 0.70
     Davidson diagonalization with overlap
     ethr =  9.92E-12,  avg # of iterations =  6.0

     total cpu time spent up to now is    12157.8 secs

     total energy              =   -2464.13822800 Ry
     estimated scf accuracy    <       0.00000005 Ry

     iteration # 36     ecut=    80.00 Ry     beta= 0.70
     Davidson diagonalization with overlap
     ethr =  9.92E-12,  avg # of iterations =  6.0

     total cpu time spent up to now is    12457.0 secs

     total energy              =   -2464.13822798 Ry
     estimated scf accuracy    <       0.00000035 Ry

     iteration # 37     ecut=    80.00 Ry     beta= 0.70
     Davidson diagonalization with overlap
     ethr =  9.92E-12,  avg # of iterations =  5.4

     total cpu time spent up to now is    12733.1 secs

     total energy              =   -2464.13822800 Ry
     estimated scf accuracy    <       0.00000012 Ry

     iteration # 38     ecut=    80.00 Ry     beta= 0.70
     Davidson diagonalization with overlap
     ethr =  9.92E-12,  avg # of iterations =  2.7

     total cpu time spent up to now is    12974.0 secs

     End of self-consistent calculation

          k = 0.0000 0.0000 0.0000 (579807 PWs)   bands (ev):

   -60.6915 -60.6655 -60.6655 -60.6589 -60.6589 -60.6460 -60.6460 -60.6460
   -60.6459 -60.6200 -60.6200 -60.6200 -60.6200 -60.6138 -60.6138 -60.6071
   -60.6071 -60.5879 -36.0126 -36.0126 -36.0126 -36.0126 -35.9232 -35.9145
   -35.9145 -35.9145 -35.9145 -35.8952 -35.8951 -35.8259 -35.7654 -35.7653
   -35.7529 -35.7529 -35.7497 -35.7497 -35.7341 -35.7341 -35.7185 -35.6613
   -35.6613 -35.6585 -35.6584 -35.6386 -35.6386 -35.6385 -35.6385 -35.6081
   -35.6081 -35.6039 -35.6039 -35.5989 -35.5989 -35.5989 -35.5989 -35.5792
   -35.5791 -35.5619 -35.5277 -35.4827 -35.4826 -35.4826 -35.4826 -35.3694
   -35.3694 -35.3620 -35.3620 -35.3216 -35.3216 -35.3216 -35.3216 -35.1802
   -18.8798 -18.6598 -18.6598 -18.4919 -18.4919 -18.4656 -18.4596 -18.4596
   -18.3605 -18.3605 -18.3605 -18.3605 -18.3060 -18.3060 -18.2697 -18.2696
   -18.2696 -18.2696 -11.6988 -11.6988 -11.6988 -11.6988 -11.5897 -11.5897
   -11.3686 -11.3539 -11.3539 -11.3539 -11.3539 -11.0592 -11.0592 -10.8869
   -10.8869 -10.4527 -10.4527 -10.1014 -10.0669  -9.7249  -9.7249  -9.1947
    -9.0109  -9.0109  -8.8112  -8.8112  -8.8112  -8.8112  -8.8036  -8.8024
    -8.8024  -8.6995  -8.6995  -8.6413  -8.6413  -8.5624  -8.5624  -8.2391
    -8.2391  -8.2290  -8.2290  -8.2290  -8.2290  -8.2067  -8.2067  -8.2067
    -8.2067  -8.1597  -8.1597  -8.1247  -8.0217  -8.0217  -7.8055  -7.8055
    -7.8055  -7.8055  -7.7658  -7.6234  -7.6234  -7.5694  -7.5694  -7.5694
    -7.5694  -7.5128  -7.5128  -7.5128  -7.5128  -7.2330  -7.2137  -7.2137
    -7.1927  -7.1450  -7.1449  -7.0087  -7.0087  -6.1660  -6.1660  -6.1660
    -6.1660  -6.0832  -6.0832  -5.2364  -5.2364  -4.9441  -4.9441  -4.9440
    -4.9440  -4.8382  -4.8382  -4.8382  -4.8382  -4.2203  -4.2203  -4.2070
    -4.2070  -4.0236  -4.0236  -4.0236  -4.0236  -3.8494  -3.8494  -3.5637
    -3.5636  -2.7862  -2.6420  -2.6420  -2.3982  -2.3469  -2.3393  -2.3393
    -2.3010  -2.3010  -2.2459  -2.2459  -2.2459  -2.2459  -2.0748  -2.0748
    -1.8694  -1.8694  -1.8694  -1.8693  -1.6840  -1.6840  -1.2111  -1.2110
    -1.1027  -1.0961  -1.0616  -1.0007  -1.0007  -0.9323  -0.9265  -0.9176
    -0.8489  -0.8488  -0.8486

          k = 0.0000 0.2802 0.0000 (579827 PWs)   bands (ev):

   -60.6899 -60.6694 -60.6646 -60.6646 -60.6521 -60.6521 -60.6476 -60.6396
   -60.6396 -60.6236 -60.6236 -60.6174 -60.6174 -60.6156 -60.6141 -60.6140
   -60.6001 -60.5886 -36.0325 -36.0325 -35.9766 -35.9766 -35.9724 -35.9724
   -35.9149 -35.8957 -35.8833 -35.8441 -35.8441 -35.8313 -35.8165 -35.8165
   -35.8060 -35.7979 -35.7151 -35.7075 -35.7075 -35.6884 -35.6764 -35.6623
   -35.6552 -35.6552 -35.6501 -35.6501 -35.6399 -35.6370 -35.6370 -35.6275
   -35.6275 -35.6030 -35.6030 -35.5976 -35.5976 -35.5966 -35.5966 -35.5910
   -35.5697 -35.5648 -35.5371 -35.5307 -35.5307 -35.4377 -35.4377 -35.4322
   -35.3594 -35.3594 -35.3376 -35.3376 -35.3167 -35.3167 -35.3001 -35.1881
   -18.8574 -18.6423 -18.6423 -18.5964 -18.4548 -18.4475 -18.4475 -18.4390
   -18.4390 -18.4026 -18.3396 -18.3139 -18.3139 -18.2961 -18.2961 -18.2908
   -18.2412 -18.2412 -11.6902 -11.6902 -11.6831 -11.6831 -11.5983 -11.5983
   -11.4773 -11.4773 -11.3536 -11.2204 -11.2204 -11.1581 -10.9505 -10.9123
   -10.9123 -10.5821 -10.3299 -10.0853 -10.0851  -9.8682  -9.5306  -9.1493
    -9.0014  -9.0014  -8.9055  -8.9055  -8.8246  -8.7900  -8.7497  -8.7497
    -8.7201  -8.6909  -8.6909  -8.6851  -8.6851  -8.6699  -8.3788  -8.3463
    -8.3463  -8.2996  -8.2996  -8.1955  -8.1955  -8.1931  -8.1931  -8.1604
    -8.1604  -8.0792  -8.0792  -8.0589  -8.0396  -8.0396  -8.0180  -8.0002
    -7.7941  -7.7941  -7.7871  -7.7470  -7.7470  -7.6420  -7.6420  -7.6253
    -7.6253  -7.4468  -7.3311  -7.3311  -7.2858  -7.2858  -7.2445  -7.2230
    -7.2086  -7.0937  -7.0145  -6.9508  -6.9113  -6.2612  -6.2612  -6.1333
    -6.1333  -6.0126  -6.0126  -5.7856  -5.2297  -5.2297  -4.9048  -4.9048
    -4.8805  -4.8805  -4.6383  -4.4285  -4.4285  -4.3352  -4.3352  -4.3048
    -4.3048  -4.1147  -4.1147  -3.8378  -3.8169  -3.8169  -3.6182  -3.5732
    -3.5731  -2.9738  -2.9507  -2.4393  -2.4345  -2.3491  -2.3400  -2.3058
    -2.3058  -2.2026  -2.2026  -2.1964  -2.0704  -2.0431  -2.0431  -1.9909
    -1.8725  -1.8724  -1.8537  -1.8537  -1.6956  -1.6956  -1.5935  -1.4639
    -1.4515  -1.4160  -1.1319  -1.0885  -1.0884  -1.0571  -1.0571  -1.0485
    -0.9636  -0.9156  -0.8818

          k = 0.0000 0.5605 0.0000 (579795 PWs)   bands (ev):

   -60.6855 -60.6785 -60.6619 -60.6619 -60.6576 -60.6575 -60.6363 -60.6335
   -60.6335 -60.6281 -60.6281 -60.6254 -60.6157 -60.6157 -60.6146 -60.6146
   -60.5946 -60.5908 -36.0331 -36.0331 -36.0129 -36.0129 -35.9289 -35.9289
   -35.8904 -35.8814 -35.8740 -35.8740 -35.8650 -35.8511 -35.8508 -35.8459
   -35.7681 -35.7681 -35.7061 -35.6952 -35.6951 -35.6927 -35.6760 -35.6759
   -35.6617 -35.6617 -35.6297 -35.6269 -35.6269 -35.6219 -35.6175 -35.6175
   -35.6093 -35.6092 -35.6054 -35.5959 -35.5959 -35.5957 -35.5957 -35.5858
   -35.5838 -35.5801 -35.5801 -35.5621 -35.5538 -35.5079 -35.3974 -35.3974
   -35.3634 -35.3634 -35.3396 -35.3395 -35.3233 -35.3232 -35.2492 -35.2114
   -18.7946 -18.7026 -18.5929 -18.5928 -18.5209 -18.5209 -18.4245 -18.4135
   -18.4135 -18.3828 -18.3654 -18.3654 -18.3374 -18.3001 -18.2531 -18.2531
   -18.2348 -18.2348 -11.6535 -11.6535 -11.6508 -11.6508 -11.6217 -11.6217
   -11.5788 -11.5788 -11.3107 -11.2437 -11.0918 -11.0918 -10.9841 -10.9841
   -10.8341 -10.7106 -10.2224 -10.1384 -10.0399  -9.9690  -9.2908  -9.0296
    -9.0208  -8.9855  -8.9855  -8.9610  -8.9610  -8.8486  -8.8376  -8.8203
    -8.6289  -8.6289  -8.5952  -8.5952  -8.5436  -8.5436  -8.4989  -8.4989
    -8.4080  -8.4080  -8.3539  -8.3539  -8.2051  -8.1657  -8.1657  -8.1626
    -8.1626  -8.0827  -8.0827  -8.0757  -7.9605  -7.9605  -7.9368  -7.9368
    -7.9247  -7.8957  -7.8604  -7.8604  -7.8444  -7.6821  -7.6384  -7.6384
    -7.6305  -7.6305  -7.2676  -7.2437  -7.1954  -7.1596  -7.1596  -7.1534
    -7.1470  -7.1470  -6.8858  -6.8538  -6.6560  -6.2833  -6.2833  -6.2640
    -6.2282  -6.2282  -5.8076  -5.8076  -5.5484  -5.5484  -4.7851  -4.7851
    -4.7480  -4.7480  -4.5758  -4.5758  -4.5528  -4.5528  -4.0271  -4.0271
    -4.0217  -3.9186  -3.9186  -3.7795  -3.7795  -3.7162  -3.7162  -3.5998
    -3.4364  -3.2655  -3.2112  -2.7542  -2.4064  -2.2115  -2.1858  -2.1858
    -2.1720  -2.1365  -2.0341  -1.9670  -1.9623  -1.9623  -1.9498  -1.9498
    -1.8363  -1.8339  -1.8339  -1.8217  -1.8036  -1.8036  -1.7627  -1.7372
    -1.7372  -1.6350  -1.3704  -1.3704  -1.2892  -1.2892  -1.1916  -1.1610
    -1.1174  -1.1170  -1.0452

          k = 0.2000 0.0000 0.0000 (579902 PWs)   bands (ev):

   -60.6903 -60.6743 -60.6583 -60.6583 -60.6557 -60.6504 -60.6504 -60.6410
   -60.6410 -60.6250 -60.6250 -60.6237 -60.6157 -60.6156 -60.6077 -60.6077
   -60.6051 -60.5890 -36.0143 -36.0143 -35.9994 -35.9994 -35.9528 -35.9528
   -35.9161 -35.9116 -35.9116 -35.8715 -35.8715 -35.8227 -35.8166 -35.7777
   -35.7601 -35.7601 -35.7248 -35.7163 -35.7155 -35.7117 -35.7117 -35.6835
   -35.6576 -35.6576 -35.6453 -35.6453 -35.6327 -35.6309 -35.6309 -35.6275
   -35.6270 -35.6064 -35.6064 -35.5922 -35.5922 -35.5921 -35.5800 -35.5800
   -35.5782 -35.5638 -35.5408 -35.5408 -35.5311 -35.4384 -35.4305 -35.4305
   -35.3569 -35.3569 -35.3319 -35.3319 -35.3221 -35.3221 -35.3066 -35.1887
   -18.8685 -18.7251 -18.5973 -18.4851 -18.4851 -18.4746 -18.4640 -18.4548
   -18.3990 -18.3990 -18.3251 -18.3251 -18.3036 -18.3036 -18.2766 -18.2766
   -18.2691 -18.2691 -11.7532 -11.7532 -11.5889 -11.5889 -11.5866 -11.5426
   -11.5382 -11.5382 -11.3990 -11.1338 -11.1338 -11.1208 -11.1208 -11.1042
   -10.6592 -10.5154 -10.5154 -10.1166 -10.0339  -9.6531  -9.6531  -9.3102
    -9.1666  -9.0254  -9.0254  -8.9027  -8.8035  -8.7531  -8.7490  -8.7090
    -8.6233  -8.6208  -8.6208  -8.5900  -8.5900  -8.5465  -8.5465  -8.3212
    -8.3212  -8.2880  -8.2670  -8.2670  -8.2509  -8.2321  -8.2321  -8.2035
    -8.1296  -8.0957  -8.0957  -8.0363  -8.0239  -8.0239  -7.9265  -7.9265
    -7.8016  -7.8016  -7.7851  -7.7840  -7.5892  -7.5892  -7.5219  -7.5219
    -7.4933  -7.4804  -7.4804  -7.4363  -7.4363  -7.2856  -7.2856  -7.2514
    -7.1427  -7.0468  -7.0468  -7.0416  -7.0416  -6.4562  -6.4171  -6.4171
    -5.9298  -5.9298  -5.6542  -5.2508  -5.2508  -5.2147  -5.2147  -4.9655
    -4.9655  -4.7342  -4.7342  -4.5628  -4.5628  -4.4598  -4.4532  -4.2866
    -4.2866  -4.1213  -3.9069  -3.8656  -3.8408  -3.8408  -3.7022  -3.7022
    -3.0041  -2.9670  -2.7467  -2.7467  -2.6390  -2.6390  -2.5918  -2.4994
    -2.4994  -2.3030  -2.2225  -2.1275  -2.1036  -2.1036  -1.9906  -1.9906
    -1.8246  -1.7321  -1.7321  -1.7113  -1.7113  -1.5423  -1.5005  -1.4510
    -1.2720  -1.2720  -1.1509  -0.9733  -0.9309  -0.9309  -0.8621  -0.8621
    -0.8024  -0.8023  -0.7915

          k = 0.2000 0.2802 0.0000 (579870 PWs)   bands (ev):

   -60.6888 -60.6731 -60.6687 -60.6580 -60.6550 -60.6473 -60.6455 -60.6423
   -60.6365 -60.6266 -60.6241 -60.6237 -60.6208 -60.6159 -60.6116 -60.6054
   -60.6008 -60.5897 -36.0433 -36.0107 -36.0056 -35.9732 -35.9687 -35.9323
   -35.9105 -35.9103 -35.9031 -35.8856 -35.8485 -35.8258 -35.8176 -35.8003
   -35.7812 -35.7705 -35.7460 -35.7131 -35.6972 -35.6808 -35.6769 -35.6752
   -35.6703 -35.6592 -35.6436 -35.6398 -35.6393 -35.6317 -35.6227 -35.6153
   -35.6115 -35.6088 -35.6076 -35.6068 -35.5990 -35.5926 -35.5916 -35.5875
   -35.5809 -35.5709 -35.5672 -35.5406 -35.4887 -35.4724 -35.4236 -35.4225
   -35.3947 -35.3527 -35.3413 -35.3333 -35.3024 -35.3021 -35.2987 -35.1958
   -18.8463 -18.7062 -18.5882 -18.5812 -18.4855 -18.4616 -18.4531 -18.4430
   -18.3970 -18.3954 -18.3376 -18.3267 -18.3186 -18.3168 -18.2878 -18.2688
   -18.2529 -18.2351 -11.7755 -11.7072 -11.6428 -11.6041 -11.5893 -11.5565
   -11.5502 -11.4187 -11.3859 -11.2694 -11.2118 -11.1286 -11.0174 -10.9934
   -10.6839 -10.6480 -10.3889 -10.1356 -10.0175  -9.7965  -9.4610  -9.2968
    -9.1393  -9.1205  -8.8743  -8.8507  -8.8227  -8.7534  -8.7406  -8.7368
    -8.7054  -8.6965  -8.6567  -8.6240  -8.6061  -8.5229  -8.4800  -8.3635
    -8.3568  -8.2867  -8.2855  -8.2716  -8.2138  -8.1964  -8.1847  -8.1640
    -8.1515  -8.1340  -8.0649  -8.0417  -8.0104  -8.0097  -8.0095  -7.9337
    -7.8451  -7.8238  -7.8050  -7.7968  -7.7843  -7.7828  -7.6868  -7.4945
    -7.4916  -7.4855  -7.2915  -7.2877  -7.2805  -7.2618  -7.2427  -7.1737
    -7.1596  -7.1267  -7.0973  -6.9525  -6.8380  -6.5386  -6.4906  -6.2370
    -5.9898  -5.8085  -5.7455  -5.7350  -5.3706  -5.2153  -5.2106  -5.0831
    -4.6489  -4.6373  -4.5790  -4.5669  -4.5646  -4.4179  -4.3634  -4.3382
    -4.0579  -3.9856  -3.9811  -3.9773  -3.8534  -3.7848  -3.5933  -3.4990
    -3.1933  -3.1105  -3.0513  -2.6244  -2.5866  -2.5310  -2.5218  -2.4697
    -2.2899  -2.2522  -2.1908  -2.1669  -2.0747  -1.9951  -1.9788  -1.9730
    -1.9706  -1.8365  -1.7588  -1.7321  -1.7002  -1.6335  -1.5864  -1.5536
    -1.3923  -1.2072  -1.2040  -1.1742  -1.1117  -1.0836  -1.0074  -0.9717
    -0.9591  -0.9539  -0.8245

          k = 0.2000 0.5605 0.0000 (579751 PWs)   bands (ev):

   -60.6845 -60.6776 -60.6698 -60.6646 -60.6529 -60.6496 -60.6362 -60.6345
   -60.6325 -60.6291 -60.6272 -60.6255 -60.6237 -60.6237 -60.6086 -60.6066
   -60.5956 -60.5918 -36.0524 -36.0397 -36.0038 -35.9775 -35.9364 -35.9111
   -35.8974 -35.8951 -35.8938 -35.8933 -35.8638 -35.8468 -35.8291 -35.8132
   -35.8104 -35.7351 -35.7261 -35.7043 -35.7027 -35.6912 -35.6742 -35.6713
   -35.6590 -35.6582 -35.6489 -35.6409 -35.6367 -35.6217 -35.6190 -35.6159
   -35.6108 -35.6107 -35.6083 -35.6079 -35.6056 -35.5885 -35.5845 -35.5826
   -35.5703 -35.5684 -35.5636 -35.5561 -35.5191 -35.4958 -35.4384 -35.3923
   -35.3909 -35.3658 -35.3616 -35.3450 -35.2952 -35.2935 -35.2515 -35.2168
   -18.7842 -18.6932 -18.6528 -18.5748 -18.5357 -18.4697 -18.4256 -18.4229
   -18.4105 -18.3810 -18.3742 -18.3649 -18.3327 -18.2963 -18.2766 -18.2519
   -18.2335 -18.2222 -11.7659 -11.7210 -11.6497 -11.6035 -11.5962 -11.5951
   -11.4837 -11.3887 -11.3480 -11.2996 -11.2887 -11.1975 -10.9030 -10.8621
   -10.7789 -10.7545 -10.2778 -10.1909  -9.9711  -9.8987  -9.2635  -9.2262
    -9.2149  -8.9895  -8.9712  -8.8426  -8.8093  -8.8007  -8.7445  -8.7381
    -8.7211  -8.6985  -8.6983  -8.6242  -8.5181  -8.5047  -8.5040  -8.4611
    -8.4214  -8.3408  -8.3372  -8.3038  -8.2802  -8.2246  -8.1909  -8.1264
    -8.0900  -8.0629  -8.0588  -8.0265  -8.0171  -8.0011  -7.9373  -7.9303
    -7.9053  -7.8991  -7.8686  -7.8662  -7.8597  -7.7816  -7.7811  -7.7006
    -7.4996  -7.4975  -7.2187  -7.2151  -7.1958  -7.1811  -7.1564  -7.1530
    -7.1120  -7.1046  -6.9469  -6.8996  -6.5851  -6.5702  -6.5563  -6.2045
    -6.0053  -5.9753  -5.8793  -5.7183  -5.6307  -5.3948  -5.1001  -5.0677
    -4.9055  -4.8548  -4.4564  -4.3616  -4.2503  -4.1660  -4.1205  -4.0505
    -4.0482  -3.9988  -3.9923  -3.9010  -3.6516  -3.6042  -3.5607  -3.5061
    -3.4668  -3.3534  -3.1665  -2.6545  -2.4936  -2.4744  -2.3940  -2.3337
    -2.3281  -2.2966  -2.1495  -2.1133  -2.0781  -2.0192  -1.9760  -1.9522
    -1.9488  -1.9330  -1.8763  -1.7182  -1.7002  -1.6565  -1.5938  -1.5693
    -1.4798  -1.4223  -1.3698  -1.3003  -1.2649  -1.2500  -1.2461  -1.2306
    -1.2282  -1.0651  -0.8906

          k = 0.4000 0.0000 0.0000 (579958 PWs)   bands (ev):

   -60.6869 -60.6815 -60.6567 -60.6567 -60.6540 -60.6540 -60.6451 -60.6357
   -60.6357 -60.6343 -60.6303 -60.6302 -60.6120 -60.6120 -60.6093 -60.6093
   -60.5978 -60.5924 -36.0043 -36.0043 -35.9834 -35.9834 -35.9758 -35.9758
   -35.9443 -35.9443 -35.8950 -35.8612 -35.8277 -35.8277 -35.8133 -35.7981
   -35.7884 -35.7884 -35.7099 -35.6991 -35.6945 -35.6770 -35.6633 -35.6621
   -35.6621 -35.6545 -35.6545 -35.6509 -35.6509 -35.6492 -35.6228 -35.6228
   -35.6145 -35.6145 -35.6019 -35.6019 -35.5867 -35.5867 -35.5826 -35.5826
   -35.5792 -35.5753 -35.5697 -35.5569 -35.5410 -35.5092 -35.3870 -35.3870
   -35.3537 -35.3537 -35.3446 -35.3445 -35.3311 -35.3310 -35.2537 -35.2137
   -18.8359 -18.7861 -18.5435 -18.5022 -18.4654 -18.4654 -18.4605 -18.4564
   -18.4355 -18.4355 -18.2966 -18.2966 -18.2965 -18.2965 -18.2866 -18.2866
   -18.2777 -18.2777 -11.7446 -11.7446 -11.6716 -11.6716 -11.5411 -11.4692
   -11.4428 -11.4372 -11.4372 -11.2939 -11.2674 -11.2674 -10.8993 -10.8993
   -10.6798 -10.6798 -10.4402 -10.2508  -9.8536  -9.6011  -9.4757  -9.4757
    -9.2535  -9.2535  -9.0956  -9.0031  -8.7997  -8.7851  -8.6349  -8.6181
    -8.5264  -8.4993  -8.4993  -8.4615  -8.4615  -8.4610  -8.4610  -8.4225
    -8.4225  -8.4127  -8.3422  -8.3422  -8.3146  -8.3146  -8.1699  -8.1633
    -8.1448  -8.0263  -8.0263  -8.0090  -8.0090  -7.9974  -7.9974  -7.9751
    -7.9270  -7.9008  -7.9007  -7.8406  -7.5362  -7.5362  -7.5191  -7.5191
    -7.4289  -7.4289  -7.3876  -7.3637  -7.3637  -7.3053  -7.2862  -7.2862
    -7.1481  -7.1481  -6.9965  -6.8714  -6.8714  -6.7641  -6.6593  -6.6593
    -5.7171  -5.7171  -5.5043  -5.5043  -5.1778  -5.1552  -5.1552  -5.0685
    -5.0685  -4.6634  -4.6188  -4.6188  -4.5872  -4.5845  -4.4799  -4.4799
    -4.1900  -4.1900  -3.9132  -3.9132  -3.5707  -3.4527  -3.3510  -3.3510
    -3.2544  -3.0115  -3.0115  -3.0035  -2.8487  -2.8487  -2.7552  -2.7552
    -2.4572  -2.1854  -2.1027  -2.0719  -2.0719  -2.0555  -2.0555  -1.9655
    -1.9361  -1.9287  -1.7213  -1.5437  -1.5437  -1.3989  -1.3919  -1.3919
    -1.3349  -1.3217  -1.3217  -1.2613  -1.0085  -1.0085  -0.8225  -0.8224
    -0.7365  -0.7358  -0.6740

          k = 0.4000 0.2802 0.0000 (579930 PWs)   bands (ev):

   -60.6855 -60.6803 -60.6664 -60.6628 -60.6463 -60.6447 -60.6446 -60.6384
   -60.6341 -60.6333 -60.6312 -60.6299 -60.6186 -60.6170 -60.6067 -60.6031
   -60.5983 -60.5930 -36.0423 -36.0295 -35.9797 -35.9587 -35.9500 -35.9436
   -35.9341 -35.9217 -35.8969 -35.8891 -35.8758 -35.8483 -35.8092 -35.7820
   -35.7581 -35.7441 -35.7220 -35.7173 -35.7070 -35.7066 -35.6966 -35.6716
   -35.6680 -35.6544 -35.6541 -35.6378 -35.6352 -35.6340 -35.6289 -35.6177
   -35.6177 -35.6126 -35.5988 -35.5956 -35.5931 -35.5878 -35.5800 -35.5744
   -35.5744 -35.5648 -35.5530 -35.5505 -35.5441 -35.4883 -35.4202 -35.4019
   -35.3760 -35.3758 -35.3620 -35.3414 -35.2962 -35.2961 -35.2545 -35.2183
   -18.8146 -18.7660 -18.5648 -18.5291 -18.5286 -18.4883 -18.4492 -18.4449
   -18.3808 -18.3591 -18.3563 -18.3333 -18.3317 -18.3238 -18.2792 -18.2666
   -18.2484 -18.2370 -11.7972 -11.7521 -11.6703 -11.5723 -11.5379 -11.4820
   -11.4614 -11.4605 -11.3712 -11.3386 -11.3159 -11.1790 -11.0397 -10.8182
   -10.7591 -10.5455 -10.4631 -10.2715  -9.8369  -9.6161  -9.5853  -9.3840
    -9.2909  -9.0824  -9.0476  -8.9527  -8.8144  -8.7933  -8.6610  -8.6078
    -8.5859  -8.5836  -8.5798  -8.5246  -8.5189  -8.5045  -8.4643  -8.4136
    -8.3957  -8.3767  -8.3473  -8.3189  -8.3151  -8.2493  -8.1425  -8.1127
    -8.0831  -8.0822  -8.0491  -8.0393  -7.9815  -7.9671  -7.9526  -7.9381
    -7.9252  -7.9156  -7.8911  -7.8713  -7.8569  -7.8345  -7.6206  -7.5523
    -7.3858  -7.3448  -7.2996  -7.2436  -7.2411  -7.2342  -7.2168  -7.1812
    -7.1796  -7.0552  -7.0167  -7.0133  -6.7963  -6.7896  -6.6658  -6.4613
    -5.7388  -5.6440  -5.6278  -5.5123  -5.4933  -5.4411  -5.3246  -4.9552
    -4.9496  -4.7902  -4.6240  -4.5877  -4.4175  -4.2991  -4.2987  -4.2226
    -4.2113  -4.0347  -3.9611  -3.6837  -3.6408  -3.6355  -3.3795  -3.3506
    -3.3063  -3.1339  -2.9368  -2.8464  -2.7842  -2.7776  -2.7668  -2.7228
    -2.5970  -2.4480  -2.1128  -2.1005  -2.0733  -2.0331  -2.0213  -1.9748
    -1.8913  -1.7818  -1.6205  -1.5793  -1.5342  -1.4916  -1.4311  -1.4119
    -1.3845  -1.3694  -1.3518  -1.2991  -1.2784  -1.1909  -1.1760  -0.9244
    -0.9014  -0.8285  -0.6332

          k = 0.4000 0.5605 0.0000 (579684 PWs)   bands (ev):

   -60.6814 -60.6764 -60.6749 -60.6705 -60.6432 -60.6410 -60.6358 -60.6352
   -60.6333 -60.6323 -60.6313 -60.6302 -60.6264 -60.6259 -60.6027 -60.5999
   -60.5983 -60.5949 -36.0601 -36.0558 -35.9672 -35.9367 -35.9330 -35.9281
   -35.9187 -35.9046 -35.9037 -35.8960 -35.8843 -35.8500 -35.8133 -35.7933
   -35.7753 -35.7622 -35.7484 -35.7068 -35.6989 -35.6894 -35.6878 -35.6867
   -35.6781 -35.6569 -35.6427 -35.6354 -35.6266 -35.6265 -35.6217 -35.6211
   -35.6202 -35.6141 -35.6124 -35.6069 -35.6061 -35.6029 -35.5752 -35.5713
   -35.5681 -35.5623 -35.5323 -35.5075 -35.4852 -35.4655 -35.4610 -35.4475
   -35.4281 -35.4079 -35.3458 -35.3388 -35.2723 -35.2593 -35.2587 -35.2329
   -18.7544 -18.7089 -18.6663 -18.6252 -18.4868 -18.4496 -18.4265 -18.4186
   -18.4134 -18.3943 -18.3759 -18.3696 -18.3196 -18.2998 -18.2858 -18.2699
   -18.2208 -18.2170 -11.8181 -11.8029 -11.5878 -11.5281 -11.5132 -11.5105
   -11.4689 -11.4349 -11.3941 -11.3781 -11.2817 -11.1698 -11.0732 -10.9516
   -10.6316 -10.5292 -10.4260 -10.3318  -9.7900  -9.7175  -9.5421  -9.4768
    -9.0686  -8.9096  -8.8794  -8.8295  -8.8224  -8.8066  -8.7837  -8.7751
    -8.7147  -8.7061  -8.6643  -8.5845  -8.5638  -8.5544  -8.4454  -8.4072
    -8.4051  -8.3973  -8.3399  -8.3113  -8.1902  -8.1808  -8.1497  -8.0962
    -8.0872  -8.0347  -8.0251  -8.0248  -7.9744  -7.9725  -7.9714  -7.9648
    -7.9494  -7.9327  -7.9314  -7.9154  -7.9036  -7.8941  -7.8032  -7.7452
    -7.3801  -7.3690  -7.2836  -7.2577  -7.1140  -7.0940  -7.0707  -7.0648
    -7.0634  -7.0570  -7.0401  -6.9971  -6.8548  -6.8388  -6.4038  -6.2095
    -6.0652  -5.8950  -5.6827  -5.5387  -5.4739  -5.4020  -5.3215  -5.2218
    -5.2165  -5.0700  -4.1779  -4.1403  -4.1189  -4.0931  -4.0880  -4.0871
    -4.0855  -3.9077  -3.8311  -3.8285  -3.7593  -3.6396  -3.5890  -3.3361
    -3.3327  -3.2123  -3.0863  -2.9237  -2.7841  -2.6815  -2.5677  -2.5574
    -2.4865  -2.2789  -2.2342  -2.1317  -2.0984  -2.0798  -2.0755  -2.0583
    -2.0325  -2.0202  -1.9988  -1.8714  -1.5081  -1.4834  -1.4660  -1.4536
    -1.4226  -1.3698  -1.3420  -1.3265  -1.2480  -1.1504  -1.1489  -1.0036
    -0.8574  -0.7821  -0.7802

     the Fermi energy is    -3.7199 ev

!    total energy              =   -2464.13822800 Ry
     estimated scf accuracy    <          4.1E-09 Ry
     smearing contrib. (-TS)   =      -0.01364539 Ry
     internal energy E=F+TS    =   -2464.12458261 Ry

     The total energy is F=E-TS. E is the sum of the following terms:
     one-electron contribution =  -39876.99916374 Ry
     hartree contribution      =   19875.67970441 Ry
     xc contribution           =    -370.38072257 Ry
     ewald contribution        =   17907.57559930 Ry

     convergence has been achieved in  38 iterations

     Forces acting on atoms (cartesian axes, Ry/au):

     atom    1 type  1   force =     0.00000000   -0.00001572   -0.00232282
     atom    2 type  1   force =     0.00000000   -0.00007243   -0.00231941
     atom    3 type  1   force =     0.00000000    0.00006054   -0.00231961
     atom    4 type  1   force =    -0.00001607   -0.00002040    0.00227538
     atom    5 type  1   force =     0.00006305   -0.00006831    0.00226351
     atom    6 type  1   force =     0.00001696   -0.00014167    0.00227235
     atom    7 type  1   force =    -0.00002560   -0.00000064   -0.00231565
     atom    8 type  1   force =    -0.00000119   -0.00001951   -0.00232910
     atom    9 type  1   force =     0.00001481   -0.00001068   -0.00232059
     atom   10 type  1   force =     0.00000000   -0.00007549    0.00228211
     atom   11 type  1   force =     0.00000000   -0.00007008    0.00226560
     atom   12 type  1   force =     0.00000000   -0.00007975    0.00227317
     atom   13 type  1   force =     0.00002560   -0.00000064   -0.00231565
     atom   14 type  1   force =     0.00000119   -0.00001951   -0.00232910
     atom   15 type  1   force =    -0.00001481   -0.00001068   -0.00232059
     atom   16 type  1   force =     0.00001607   -0.00002040    0.00227538
     atom   17 type  1   force =    -0.00006305   -0.00006831    0.00226351
     atom   18 type  1   force =    -0.00001696   -0.00014167    0.00227235
     atom   19 type  2   force =    -0.00767133    0.00001933   -0.00273522
     atom   20 type  2   force =    -0.00766912    0.00001889   -0.00273604
     atom   21 type  2   force =    -0.00767009    0.00001648   -0.00273529
     atom   22 type  2   force =     0.00761350    0.00002530    0.00275957
     atom   23 type  2   force =     0.00761585    0.00002459    0.00276101
     atom   24 type  2   force =     0.00761489    0.00002498    0.00276050
     atom   25 type  2   force =    -0.00761554    0.00002454    0.00275992
     atom   26 type  2   force =    -0.00761479    0.00002474    0.00275963
     atom   27 type  2   force =    -0.00761580    0.00002556    0.00275974
     atom   28 type  2   force =     0.00766950    0.00001856   -0.00273592
     atom   29 type  2   force =    -0.00766693    0.00001831   -0.00273531
     atom   30 type  2   force =     0.00766787    0.00001849   -0.00273512
     atom   31 type  2   force =    -0.00766951    0.00001871   -0.00273575
     atom   32 type  2   force =     0.00766727    0.00001742   -0.00273474
     atom   33 type  2   force =    -0.00766942    0.00001746   -0.00273560
     atom   34 type  2   force =     0.00761574    0.00002314    0.00276105
     atom   35 type  2   force =    -0.00761574    0.00002314    0.00276105
     atom   36 type  2   force =     0.00761622    0.00002477    0.00276095
     atom   37 type  2   force =    -0.00761622    0.00002477    0.00276095
     atom   38 type  2   force =     0.00761565    0.00002641    0.00276118
     atom   39 type  2   force =    -0.00761565    0.00002641    0.00276118
     atom   40 type  2   force =     0.00766693    0.00001831   -0.00273531
     atom   41 type  2   force =    -0.00766950    0.00001856   -0.00273592
     atom   42 type  2   force =     0.00766951    0.00001871   -0.00273575
     atom   43 type  2   force =    -0.00766787    0.00001849   -0.00273512
     atom   44 type  2   force =     0.00766942    0.00001746   -0.00273560
     atom   45 type  2   force =    -0.00766727    0.00001742   -0.00273474
     atom   46 type  2   force =     0.00761580    0.00002556    0.00275974
     atom   47 type  2   force =    -0.00761350    0.00002530    0.00275957
     atom   48 type  2   force =     0.00761479    0.00002474    0.00275963
     atom   49 type  2   force =     0.00767009    0.00001648   -0.00273529
     atom   50 type  2   force =     0.00766912    0.00001889   -0.00273604
     atom   51 type  2   force =     0.00767133    0.00001933   -0.00273522
     atom   52 type  2   force =     0.00761554    0.00002454    0.00275992
     atom   53 type  2   force =    -0.00761489    0.00002498    0.00276050
     atom   54 type  2   force =    -0.00761585    0.00002459    0.00276101

     Total force =     0.049693     Total SCF correction =     0.000101

     BFGS Geometry Optimization
     Energy error            =      0.0E+00 Ry
     Gradient error          =      7.7E-03 Ry/Bohr

     number of scf cycles    =   1
     number of bfgs steps    =   0

     energy             new  =   -2464.1382279994 Ry

     new trust radius        =       0.0081443863 bohr
     new conv_thr            =       0.0000000100 Ry


ATOMIC_POSITIONS (angstrom)
Nb            0.0000000000        1.7586351266        1.2413219078
Nb            0.0000000000        5.2985893932        1.2413237117
Nb            0.0000000000        8.8386440409        1.2413236049
Nb            2.4799804816       10.6086932540        1.0732817445
Nb            2.4800223542        7.0686836173        1.0732754633
Nb            2.4799979622        3.5286605142        1.0732801412
Nb            4.9599644298        1.7586431020        1.2413257032
Nb            4.9599773466        5.2986173999        1.2413185858
Nb            4.9599858112        8.8386063518        1.2413230877
Nb            7.4399669640       10.6086640986        1.0732853023
Nb            7.4399669640        7.0686826796        1.0732765652
Nb            7.4399669640        3.5286932854        1.0732805703
Nb            9.9199694982        1.7586431020        1.2413257032
Nb            9.9199565814        5.2986173999        1.2413185858
Nb            9.9199481168        8.8386063518        1.2413230877
Nb           12.3999534464       10.6086932540        1.0732817445
Nb           12.3999115738        7.0686836173        1.0732754633
Nb           12.3999359658        3.5286605142        1.0732801412
C             0.6816687935       10.6085912392        0.0272276963
C             0.6816699604        7.0686067277        0.0272272637
C             0.6816694446        3.5286211668        0.0272276570
C             1.7983091023        1.7586762585        2.2874553991
C             1.7983103474        5.2986601644        2.2874561609
C             1.7983098405        8.8386446551        2.2874558866
C             3.1616677934        8.8386444197        2.2874555794
C             3.1616681885        5.2986602462        2.2874554266
C             3.1616676546        1.7586763961        2.2874554869
C             4.2783082159       10.6085908300        0.0272273244
C             5.6416490951       10.6085906982        0.0272276507
C             4.2783073539        7.0686065148        0.0272277499
C             5.6416477319        7.0686066289        0.0272274131
C             4.2783070373        3.5286216680        0.0272279524
C             5.6416477801        3.5286216862        0.0272274967
C             6.7582882647        1.7586751178        2.2874561797
C             8.1216456633        1.7586751178        2.2874561797
C             6.7582885197        5.2986602628        2.2874561255
C             8.1216454083        5.2986602628        2.2874561255
C             6.7582882170        8.8386454111        2.2874562460
C             8.1216457110        8.8386454111        2.2874562460
C             9.2382848329       10.6085906982        0.0272276507
C            10.6016257121       10.6085908300        0.0272273244
C             9.2382861961        7.0686066289        0.0272274131
C            10.6016265741        7.0686065148        0.0272277499
C             9.2382861479        3.5286216862        0.0272274967
C            10.6016268907        3.5286216680        0.0272279524
C            11.7182662734        1.7586763961        2.2874554869
C            13.0816248257        1.7586762585        2.2874553991
C            11.7182657395        5.2986602462        2.2874554266
C            14.1982644834        3.5286211668        0.0272276570
C            14.1982639676        7.0686067277        0.0272272637
C            14.1982651345       10.6085912392        0.0272276963
C            11.7182661346        8.8386444197        2.2874555794
C            13.0816240875        8.8386446551        2.2874558866
C            13.0816235806        5.2986601644        2.2874561609



     Writing output data file /home/fernando/serse/temp/NB.save/
     NEW-OLD atomic charge density approx. for the potential

     negative rho (up, down):  1.048E-04 0.000E+00

     total cpu time spent up to now is    13008.7 secs

     Self-consistent Calculation

     iteration #  1     ecut=    80.00 Ry     beta= 0.70
     Davidson diagonalization with overlap
     ethr =  1.00E-06,  avg # of iterations =  6.0

     negative rho (up, down):  1.627E-05 0.000E+00

     total cpu time spent up to now is    13494.8 secs

     total energy              =   -2464.13543088 Ry
     estimated scf accuracy    <       0.00875560 Ry

     iteration #  2     ecut=    80.00 Ry     beta= 0.70
     Davidson diagonalization with overlap
     ethr =  2.32E-06,  avg # of iterations =  4.6

     negative rho (up, down):  5.861E-06 0.000E+00

     total cpu time spent up to now is    13858.2 secs

     total energy              =   -2464.13697476 Ry
     estimated scf accuracy    <       0.00736529 Ry

     iteration #  3     ecut=    80.00 Ry     beta= 0.70
     Davidson diagonalization with overlap
     ethr =  1.95E-06,  avg # of iterations =  4.7

     negative rho (up, down):  3.781E-06 0.000E+00

     total cpu time spent up to now is    14140.6 secs

     total energy              =   -2464.13708972 Ry
     estimated scf accuracy    <       0.01289981 Ry

     iteration #  4     ecut=    80.00 Ry     beta= 0.70
     Davidson diagonalization with overlap
     ethr =  1.95E-06,  avg # of iterations =  3.4

     negative rho (up, down):  1.417E-06 0.000E+00

     total cpu time spent up to now is    14386.2 secs

     total energy              =   -2464.13779433 Ry
     estimated scf accuracy    <       0.01552443 Ry

     iteration #  5     ecut=    80.00 Ry     beta= 0.70
     Davidson diagonalization with overlap
     ethr =  1.95E-06,  avg # of iterations =  1.8

     negative rho (up, down):  4.494E-07 0.000E+00

     total cpu time spent up to now is    14617.3 secs

     total energy              =   -2464.13854647 Ry
     estimated scf accuracy    <       0.00390986 Ry

     iteration #  6     ecut=    80.00 Ry     beta= 0.70
     Davidson diagonalization with overlap
     ethr =  1.03E-06,  avg # of iterations =  1.4

     negative rho (up, down):  8.176E-08 0.000E+00

     total cpu time spent up to now is    14846.7 secs

     total energy              =   -2464.13886255 Ry
     estimated scf accuracy    <       0.00012377 Ry

     iteration #  7     ecut=    80.00 Ry     beta= 0.70
     Davidson diagonalization with overlap
     ethr =  3.27E-08,  avg # of iterations =  6.2

     total cpu time spent up to now is    15141.7 secs

     total energy              =   -2464.13889224 Ry
     estimated scf accuracy    <       0.00013335 Ry

     iteration #  8     ecut=    80.00 Ry     beta= 0.70
     Davidson diagonalization with overlap
     ethr =  3.27E-08,  avg # of iterations =  2.9

     total cpu time spent up to now is    15380.2 secs

     total energy              =   -2464.13890289 Ry
     estimated scf accuracy    <       0.00004789 Ry

     iteration #  9     ecut=    80.00 Ry     beta= 0.70
     Davidson diagonalization with overlap
     ethr =  1.27E-08,  avg # of iterations =  2.0

     total cpu time spent up to now is    15632.5 secs

     total energy              =   -2464.13890964 Ry
     estimated scf accuracy    <       0.00000754 Ry

     iteration # 10     ecut=    80.00 Ry     beta= 0.70
     Davidson diagonalization with overlap
     ethr =  2.00E-09,  avg # of iterations =  5.2

     total cpu time spent up to now is    15899.9 secs

     total energy              =   -2464.13891041 Ry
     estimated scf accuracy    <       0.00000118 Ry

     iteration # 11     ecut=    80.00 Ry     beta= 0.70
     Davidson diagonalization with overlap
     ethr =  3.11E-10,  avg # of iterations =  6.0

     total cpu time spent up to now is    16214.9 secs

     total energy              =   -2464.13891059 Ry
     estimated scf accuracy    <       0.00000119 Ry

     iteration # 12     ecut=    80.00 Ry     beta= 0.70
     Davidson diagonalization with overlap
     ethr =  3.11E-10,  avg # of iterations =  3.0

     total cpu time spent up to now is    16459.0 secs

     total energy              =   -2464.13891071 Ry
     estimated scf accuracy    <       0.00000038 Ry

     iteration # 13     ecut=    80.00 Ry     beta= 0.70
     Davidson diagonalization with overlap
     ethr =  9.95E-11,  avg # of iterations =  5.2

     total cpu time spent up to now is    16747.3 secs

     total energy              =   -2464.13891074 Ry
     estimated scf accuracy    <       0.00000039 Ry

     iteration # 14     ecut=    80.00 Ry     beta= 0.70
     Davidson diagonalization with overlap
     ethr =  9.95E-11,  avg # of iterations =  2.1

     total cpu time spent up to now is    16985.6 secs

     total energy              =   -2464.13891076 Ry
     estimated scf accuracy    <       0.00000016 Ry

     iteration # 15     ecut=    80.00 Ry     beta= 0.70
     Davidson diagonalization with overlap
     ethr =  4.33E-11,  avg # of iterations =  2.4

     total cpu time spent up to now is    17216.5 secs

     total energy              =   -2464.13891077 Ry
     estimated scf accuracy    <       0.00000005 Ry

     iteration # 16     ecut=    80.00 Ry     beta= 0.70
     Davidson diagonalization with overlap
     ethr =  1.36E-11,  avg # of iterations =  5.4

     total cpu time spent up to now is    17482.8 secs

     total energy              =   -2464.13891078 Ry
     estimated scf accuracy    <       0.00000004 Ry

     iteration # 17     ecut=    80.00 Ry     beta= 0.70
     Davidson diagonalization with overlap
     ethr =  1.00E-11,  avg # of iterations =  2.0

     total cpu time spent up to now is    17733.4 secs

     End of self-consistent calculation

          k = 0.0000 0.0000 0.0000 (579807 PWs)   bands (ev):

   -60.6898 -60.6639 -60.6639 -60.6572 -60.6572 -60.6443 -60.6443 -60.6443
   -60.6443 -60.6184 -60.6184 -60.6184 -60.6184 -60.6122 -60.6122 -60.6055
   -60.6055 -60.5863 -36.0097 -36.0097 -36.0097 -36.0097 -35.9169 -35.9121
   -35.9121 -35.9121 -35.9121 -35.8939 -35.8939 -35.8241 -35.7597 -35.7597
   -35.7513 -35.7513 -35.7485 -35.7485 -35.7280 -35.7280 -35.7165 -35.6589
   -35.6589 -35.6564 -35.6564 -35.6365 -35.6365 -35.6365 -35.6365 -35.6061
   -35.6061 -35.6024 -35.6024 -35.5969 -35.5969 -35.5969 -35.5969 -35.5772
   -35.5772 -35.5601 -35.5263 -35.4784 -35.4784 -35.4784 -35.4784 -35.3641
   -35.3641 -35.3564 -35.3564 -35.3172 -35.3172 -35.3172 -35.3172 -35.1749
   -18.9240 -18.7091 -18.7090 -18.5401 -18.5401 -18.5185 -18.5132 -18.5131
   -18.4122 -18.4122 -18.4122 -18.4121 -18.3584 -18.3584 -18.3234 -18.3234
   -18.3234 -18.3234 -11.6740 -11.6739 -11.6739 -11.6739 -11.5635 -11.5635
   -11.3431 -11.3284 -11.3284 -11.3284 -11.3284 -11.0359 -11.0359 -10.8604
   -10.8604 -10.4315 -10.4315 -10.1173 -10.0454  -9.7340  -9.7340  -9.2135
    -9.0307  -9.0307  -8.8263  -8.8234  -8.8234  -8.8203  -8.8203  -8.8203
    -8.8203  -8.7198  -8.7198  -8.6532  -8.6532  -8.5822  -8.5822  -8.2511
    -8.2511  -8.2511  -8.2511  -8.2373  -8.2373  -8.2231  -8.2230  -8.2230
    -8.2230  -8.1865  -8.1865  -8.1301  -8.0510  -8.0509  -7.8287  -7.8286
    -7.8286  -7.8286  -7.7995  -7.6208  -7.6207  -7.5649  -7.5649  -7.5649
    -7.5649  -7.5206  -7.5206  -7.5206  -7.5206  -7.2312  -7.2209  -7.2209
    -7.1673  -7.1161  -7.1161  -7.0114  -7.0114  -6.1473  -6.1473  -6.1473
    -6.1473  -6.0630  -6.0629  -5.2015  -5.2015  -4.9257  -4.9257  -4.9256
    -4.9256  -4.8230  -4.8230  -4.8230  -4.8230  -4.1912  -4.1911  -4.1881
    -4.1880  -4.0153  -4.0153  -4.0153  -4.0152  -3.8556  -3.8556  -3.5445
    -3.5445  -2.7515  -2.6634  -2.6634  -2.4024  -2.3406  -2.3376  -2.3376
    -2.3074  -2.3073  -2.2430  -2.2430  -2.2430  -2.2430  -2.0539  -2.0539
    -1.8608  -1.8608  -1.8607  -1.8607  -1.6944  -1.6944  -1.1850  -1.1850
    -1.1115  -1.0645  -1.0403  -1.0085  -1.0085  -0.9468  -0.9164  -0.8871
    -0.8440  -0.8440  -0.8439

          k = 0.0000 0.2802 0.0000 (579827 PWs)   bands (ev):

   -60.6882 -60.6678 -60.6630 -60.6630 -60.6504 -60.6504 -60.6460 -60.6380
   -60.6380 -60.6219 -60.6219 -60.6158 -60.6158 -60.6140 -60.6125 -60.6125
   -60.5985 -60.5870 -36.0298 -36.0298 -35.9735 -35.9735 -35.9700 -35.9700
   -35.9086 -35.8945 -35.8819 -35.8418 -35.8418 -35.8296 -35.8127 -35.8127
   -35.8048 -35.7917 -35.7132 -35.7043 -35.7043 -35.6871 -35.6744 -35.6563
   -35.6525 -35.6525 -35.6480 -35.6480 -35.6379 -35.6351 -35.6351 -35.6254
   -35.6254 -35.6010 -35.6010 -35.5958 -35.5958 -35.5946 -35.5946 -35.5891
   -35.5678 -35.5631 -35.5357 -35.5265 -35.5264 -35.4334 -35.4334 -35.4266
   -35.3543 -35.3543 -35.3332 -35.3332 -35.3122 -35.3122 -35.2947 -35.1828
   -18.9017 -18.6916 -18.6916 -18.6433 -18.5076 -18.5010 -18.5010 -18.4899
   -18.4899 -18.4519 -18.3923 -18.3676 -18.3676 -18.3485 -18.3484 -18.3427
   -18.2948 -18.2948 -11.6653 -11.6653 -11.6581 -11.6581 -11.5722 -11.5722
   -11.4520 -11.4520 -11.3283 -11.1948 -11.1948 -11.1341 -10.9280 -10.8858
   -10.8858 -10.5608 -10.3088 -10.1008 -10.0636  -9.8790  -9.5386  -9.1681
    -9.0195  -9.0195  -8.9145  -8.9145  -8.8466  -8.7997  -8.7709  -8.7709
    -8.7399  -8.7116  -8.7116  -8.6955  -8.6955  -8.6853  -8.3991  -8.3669
    -8.3669  -8.3187  -8.3186  -8.2199  -8.2199  -8.1924  -8.1923  -8.1870
    -8.1870  -8.0920  -8.0920  -8.0648  -8.0647  -8.0647  -8.0447  -8.0298
    -7.8201  -7.8054  -7.8054  -7.7515  -7.7515  -7.6345  -7.6345  -7.6224
    -7.6224  -7.4539  -7.3398  -7.3398  -7.2964  -7.2963  -7.2217  -7.2168
    -7.1830  -7.0951  -7.0219  -6.9207  -6.9160  -6.2424  -6.2424  -6.1132
    -6.1132  -5.9934  -5.9934  -5.7517  -5.2095  -5.2094  -4.8931  -4.8931
    -4.8622  -4.8622  -4.6026  -4.4113  -4.4113  -4.3090  -4.3090  -4.2975
    -4.2975  -4.0954  -4.0954  -3.8476  -3.8047  -3.8047  -3.6213  -3.5527
    -3.5527  -2.9699  -2.9387  -2.4349  -2.4333  -2.3720  -2.3462  -2.3055
    -2.3055  -2.2067  -2.2067  -2.1940  -2.0493  -2.0376  -2.0376  -1.9697
    -1.8655  -1.8655  -1.8494  -1.8494  -1.7061  -1.7061  -1.6039  -1.4569
    -1.4391  -1.3918  -1.1395  -1.0981  -1.0980  -1.0540  -1.0540  -1.0199
    -0.9614  -0.8781  -0.8775

          k = 0.0000 0.5605 0.0000 (579795 PWs)   bands (ev):

   -60.6838 -60.6769 -60.6602 -60.6602 -60.6559 -60.6559 -60.6347 -60.6319
   -60.6319 -60.6265 -60.6265 -60.6238 -60.6141 -60.6141 -60.6130 -60.6130
   -60.5930 -60.5892 -36.0305 -36.0305 -36.0104 -36.0104 -35.9256 -35.9256
   -35.8841 -35.8803 -35.8706 -35.8706 -35.8635 -35.8500 -35.8446 -35.8443
   -35.7658 -35.7658 -35.7041 -35.6930 -35.6930 -35.6907 -35.6736 -35.6736
   -35.6596 -35.6596 -35.6284 -35.6232 -35.6232 -35.6199 -35.6155 -35.6155
   -35.6072 -35.6072 -35.6034 -35.5941 -35.5941 -35.5938 -35.5938 -35.5823
   -35.5799 -35.5760 -35.5760 -35.5603 -35.5521 -35.5022 -35.3930 -35.3930
   -35.3591 -35.3591 -35.3347 -35.3347 -35.3186 -35.3186 -35.2438 -35.2061
   -18.8395 -18.7484 -18.6426 -18.6426 -18.5712 -18.5712 -18.4774 -18.4671
   -18.4671 -18.4356 -18.4191 -18.4191 -18.3877 -18.3514 -18.3060 -18.3060
   -18.2881 -18.2881 -11.6281 -11.6281 -11.6258 -11.6258 -11.5960 -11.5959
   -11.5537 -11.5537 -11.2856 -11.2191 -11.0659 -11.0659 -10.9579 -10.9579
   -10.8121 -10.6891 -10.2011 -10.1170 -10.0544  -9.9818  -9.2985  -9.0394
    -9.0379  -8.9993  -8.9993  -8.9715  -8.9715  -8.8695  -8.8554  -8.8405
    -8.6513  -8.6513  -8.6170  -8.6169  -8.5561  -8.5561  -8.5219  -8.5219
    -8.4237  -8.4236  -8.3770  -8.3769  -8.2266  -8.1909  -8.1909  -8.1886
    -8.1886  -8.0993  -8.0835  -8.0835  -7.9710  -7.9710  -7.9547  -7.9389
    -7.9388  -7.9024  -7.8759  -7.8700  -7.8699  -7.6891  -7.6334  -7.6334
    -7.6270  -7.6270  -7.2409  -7.2177  -7.1950  -7.1716  -7.1716  -7.1591
    -7.1591  -7.1539  -6.8931  -6.8602  -6.6246  -6.2640  -6.2640  -6.2313
    -6.2085  -6.2085  -5.7877  -5.7877  -5.5281  -5.5281  -4.7753  -4.7753
    -4.7278  -4.7278  -4.5677  -4.5677  -4.5302  -4.5302  -4.0091  -4.0091
    -3.9857  -3.8993  -3.8992  -3.7625  -3.7624  -3.6965  -3.6965  -3.6135
    -3.4005  -3.2824  -3.2114  -2.7510  -2.4098  -2.2240  -2.1928  -2.1880
    -2.1880  -2.1435  -2.0329  -1.9627  -1.9627  -1.9470  -1.9470  -1.9453
    -1.8257  -1.8257  -1.8237  -1.8145  -1.8074  -1.8073  -1.7464  -1.7464
    -1.7398  -1.6123  -1.3716  -1.3716  -1.2868  -1.2868  -1.1949  -1.1584
    -1.1209  -1.1206  -1.0493

          k = 0.2000 0.0000 0.0000 (579902 PWs)   bands (ev):

   -60.6886 -60.6726 -60.6567 -60.6567 -60.6540 -60.6487 -60.6487 -60.6394
   -60.6394 -60.6233 -60.6233 -60.6221 -60.6140 -60.6140 -60.6061 -60.6061
   -60.6035 -60.5874 -36.0114 -36.0114 -35.9966 -35.9966 -35.9502 -35.9502
   -35.9099 -35.9099 -35.9098 -35.8694 -35.8694 -35.8210 -35.8106 -35.7760
   -35.7589 -35.7589 -35.7232 -35.7143 -35.7109 -35.7061 -35.7061 -35.6814
   -35.6555 -35.6555 -35.6433 -35.6433 -35.6311 -35.6289 -35.6289 -35.6248
   -35.6242 -35.6045 -35.6045 -35.5903 -35.5903 -35.5902 -35.5781 -35.5781
   -35.5767 -35.5620 -35.5364 -35.5364 -35.5296 -35.4332 -35.4263 -35.4263
   -35.3515 -35.3515 -35.3276 -35.3276 -35.3175 -35.3175 -35.3013 -35.1834
   -18.9129 -18.7728 -18.6480 -18.5334 -18.5334 -18.5279 -18.5170 -18.5083
   -18.4496 -18.4496 -18.3777 -18.3777 -18.3560 -18.3560 -18.3300 -18.3300
   -18.3230 -18.3230 -11.7273 -11.7273 -11.5652 -11.5652 -11.5614 -11.5154
   -11.5119 -11.5119 -11.3740 -11.1096 -11.1096 -11.0980 -11.0980 -11.0766
   -10.6340 -10.4941 -10.4941 -10.0949 -10.0494  -9.6615  -9.6615  -9.3268
    -9.1855  -9.0326  -9.0326  -8.9235  -8.8259  -8.7742  -8.7734  -8.7305
    -8.6441  -8.6335  -8.6335  -8.6022  -8.6022  -8.5664  -8.5664  -8.3405
    -8.3405  -8.3128  -8.2899  -8.2899  -8.2518  -8.2518  -8.2446  -8.2047
    -8.1348  -8.1062  -8.1062  -8.0650  -8.0530  -8.0529  -7.9520  -7.9520
    -7.8184  -7.8052  -7.8052  -7.7820  -7.6043  -7.6043  -7.5353  -7.5353
    -7.4898  -7.4845  -7.4845  -7.4310  -7.4310  -7.2847  -7.2847  -7.2493
    -7.1176  -7.0486  -7.0486  -7.0213  -7.0213  -6.4350  -6.3976  -6.3976
    -5.9116  -5.9116  -5.6346  -5.2331  -5.2331  -5.1817  -5.1817  -4.9435
    -4.9435  -4.7169  -4.7169  -4.5525  -4.5525  -4.4311  -4.4309  -4.2740
    -4.2740  -4.1024  -3.8776  -3.8499  -3.8459  -3.8459  -3.6992  -3.6992
    -2.9847  -2.9370  -2.7645  -2.7645  -2.6298  -2.6298  -2.5910  -2.4965
    -2.4965  -2.3078  -2.2305  -2.1176  -2.0985  -2.0984  -1.9818  -1.9818
    -1.8355  -1.7191  -1.7191  -1.7025  -1.7025  -1.5517  -1.4957  -1.4309
    -1.2535  -1.2535  -1.1577  -0.9724  -0.9359  -0.9359  -0.8536  -0.8536
    -0.8038  -0.8038  -0.7619

          k = 0.2000 0.2802 0.0000 (579870 PWs)   bands (ev):

   -60.6871 -60.6715 -60.6670 -60.6563 -60.6533 -60.6456 -60.6438 -60.6407
   -60.6349 -60.6250 -60.6225 -60.6221 -60.6192 -60.6143 -60.6100 -60.6039
   -60.5992 -60.5881 -36.0406 -36.0081 -36.0030 -35.9702 -35.9657 -35.9301
   -35.9090 -35.9042 -35.9010 -35.8830 -35.8441 -35.8239 -35.8164 -35.7982
   -35.7780 -35.7651 -35.7428 -35.7111 -35.6959 -35.6787 -35.6744 -35.6732
   -35.6682 -35.6572 -35.6382 -35.6378 -35.6371 -35.6296 -35.6207 -35.6134
   -35.6077 -35.6070 -35.6057 -35.6048 -35.5970 -35.5896 -35.5883 -35.5856
   -35.5792 -35.5690 -35.5654 -35.5391 -35.4842 -35.4682 -35.4181 -35.4175
   -35.3904 -35.3482 -35.3369 -35.3291 -35.2974 -35.2972 -35.2934 -35.1905
   -18.8909 -18.7541 -18.6354 -18.6320 -18.5353 -18.5150 -18.5061 -18.4965
   -18.4475 -18.4465 -18.3903 -18.3782 -18.3724 -18.3703 -18.3398 -18.3219
   -18.3061 -18.2890 -11.7496 -11.6812 -11.6167 -11.5802 -11.5643 -11.5294
   -11.5265 -11.3922 -11.3610 -11.2454 -11.1884 -11.1011 -10.9951 -10.9690
   -10.6588 -10.6267 -10.3676 -10.1139 -10.0325  -9.8065  -9.4685  -9.3124
    -9.1470  -9.1395  -8.8822  -8.8715  -8.8444  -8.7737  -8.7627  -8.7467
    -8.7254  -8.7087  -8.6783  -8.6398  -8.6283  -8.5372  -8.5013  -8.3838
    -8.3728  -8.3112  -8.3068  -8.2954  -8.2138  -8.2089  -8.2071  -8.1812
    -8.1595  -8.1534  -8.0706  -8.0702  -8.0396  -8.0362  -8.0157  -7.9592
    -7.8656  -7.8376  -7.8245  -7.8038  -7.7807  -7.7773  -7.6901  -7.4908
    -7.4895  -7.4858  -7.3104  -7.2886  -7.2859  -7.2787  -7.2410  -7.1493
    -7.1344  -7.1274  -7.0952  -6.9559  -6.8178  -6.5186  -6.4694  -6.2172
    -5.9717  -5.7897  -5.7158  -5.7134  -5.3488  -5.1966  -5.1929  -5.0668
    -4.6249  -4.6039  -4.5673  -4.5568  -4.5414  -4.4087  -4.3453  -4.3154
    -4.0416  -3.9789  -3.9580  -3.9539  -3.8620  -3.7692  -3.5949  -3.4922
    -3.1772  -3.0794  -3.0674  -2.6192  -2.5752  -2.5316  -2.5216  -2.4875
    -2.2851  -2.2429  -2.1977  -2.1645  -2.0741  -1.9879  -1.9710  -1.9677
    -1.9610  -1.8473  -1.7440  -1.7266  -1.6960  -1.6216  -1.5962  -1.5633
    -1.3719  -1.2146  -1.1891  -1.1812  -1.1106  -1.0770  -1.0096  -0.9821
    -0.9548  -0.9347  -0.8289

          k = 0.2000 0.5605 0.0000 (579751 PWs)   bands (ev):

   -60.6828 -60.6759 -60.6682 -60.6630 -60.6512 -60.6479 -60.6345 -60.6328
   -60.6308 -60.6275 -60.6255 -60.6239 -60.6221 -60.6221 -60.6070 -60.6050
   -60.5940 -60.5903 -36.0497 -36.0370 -36.0014 -35.9752 -35.9330 -35.9080
   -35.8938 -35.8922 -35.8905 -35.8896 -35.8626 -35.8436 -35.8265 -35.8088
   -35.8078 -35.7326 -35.7240 -35.7023 -35.6993 -35.6892 -35.6719 -35.6688
   -35.6569 -35.6562 -35.6469 -35.6370 -35.6353 -35.6197 -35.6170 -35.6138
   -35.6088 -35.6088 -35.6063 -35.6059 -35.6036 -35.5870 -35.5826 -35.5808
   -35.5647 -35.5643 -35.5618 -35.5544 -35.5149 -35.4902 -35.4338 -35.3877
   -35.3862 -35.3615 -35.3571 -35.3407 -35.2902 -35.2887 -35.2461 -35.2115
   -18.8294 -18.7392 -18.7011 -18.6237 -18.5868 -18.5213 -18.4791 -18.4758
   -18.4640 -18.4338 -18.4279 -18.4185 -18.3833 -18.3477 -18.3288 -18.3047
   -18.2870 -18.2760 -11.7399 -11.6950 -11.6234 -11.5793 -11.5715 -11.5684
   -11.4599 -11.3648 -11.3234 -11.2727 -11.2646 -11.1704 -10.8812 -10.8375
   -10.7574 -10.7296 -10.2563 -10.1693  -9.9848  -9.9106  -9.2763  -9.2336
    -9.2246  -9.0083  -8.9795  -8.8632  -8.8294  -8.8189  -8.7606  -8.7512
    -8.7420  -8.7197  -8.7081  -8.6460  -8.5305  -8.5300  -8.5261  -8.4834
    -8.4379  -8.3652  -8.3563  -8.3285  -8.3039  -8.2461  -8.2123  -8.1236
    -8.1162  -8.0864  -8.0864  -8.0334  -8.0293  -8.0011  -7.9669  -7.9337
    -7.9162  -7.9116  -7.8909  -7.8717  -7.8677  -7.7787  -7.7783  -7.7068
    -7.4947  -7.4933  -7.2178  -7.1894  -7.1811  -7.1703  -7.1616  -7.1591
    -7.1315  -7.1234  -6.9493  -6.9040  -6.5644  -6.5441  -6.5351  -6.1743
    -5.9846  -5.9571  -5.8607  -5.6967  -5.6114  -5.3752  -5.0804  -5.0543
    -4.8843  -4.8425  -4.4512  -4.3386  -4.2470  -4.1411  -4.0972  -4.0299
    -4.0149  -3.9849  -3.9713  -3.8773  -3.6634  -3.5892  -3.5459  -3.4735
    -3.4547  -3.3675  -3.1648  -2.6493  -2.4938  -2.4626  -2.3995  -2.3414
    -2.3369  -2.2857  -2.1557  -2.1125  -2.0800  -2.0160  -1.9811  -1.9457
    -1.9428  -1.9355  -1.8850  -1.7095  -1.6831  -1.6605  -1.6028  -1.5499
    -1.4688  -1.4170  -1.3710  -1.2941  -1.2563  -1.2548  -1.2427  -1.2353
    -1.2313  -1.0597  -0.8991

          k = 0.4000 0.0000 0.0000 (579958 PWs)   bands (ev):

   -60.6853 -60.6799 -60.6550 -60.6550 -60.6523 -60.6523 -60.6435 -60.6340
   -60.6340 -60.6327 -60.6286 -60.6286 -60.6104 -60.6104 -60.6077 -60.6077
   -60.5962 -60.5908 -36.0015 -36.0015 -35.9807 -35.9807 -35.9731 -35.9731
   -35.9420 -35.9420 -35.8888 -35.8550 -35.8258 -35.8258 -35.8116 -35.7964
   -35.7868 -35.7868 -35.7079 -35.6971 -35.6929 -35.6736 -35.6618 -35.6573
   -35.6572 -35.6523 -35.6523 -35.6489 -35.6489 -35.6466 -35.6208 -35.6208
   -35.6125 -35.6125 -35.5973 -35.5972 -35.5848 -35.5848 -35.5807 -35.5807
   -35.5773 -35.5709 -35.5679 -35.5555 -35.5395 -35.5042 -35.3828 -35.3828
   -35.3495 -35.3495 -35.3394 -35.3394 -35.3262 -35.3262 -35.2484 -35.2084
   -18.8811 -18.8324 -18.5955 -18.5550 -18.5143 -18.5143 -18.5136 -18.5097
   -18.4851 -18.4851 -18.3499 -18.3499 -18.3492 -18.3492 -18.3396 -18.3396
   -18.3315 -18.3315 -11.7181 -11.7181 -11.6449 -11.6449 -11.5166 -11.4448
   -11.4150 -11.4144 -11.4144 -11.2659 -11.2450 -11.2450 -10.8763 -10.8763
   -10.6578 -10.6578 -10.4165 -10.2285  -9.8685  -9.6163  -9.4829  -9.4829
    -9.2602  -9.2602  -9.1151  -9.0232  -8.8213  -8.8059  -8.6581  -8.6450
    -8.5481  -8.5194  -8.5194  -8.4789  -8.4789  -8.4744  -8.4743  -8.4426
    -8.4426  -8.4358  -8.3637  -8.3637  -8.3304  -8.3304  -8.1730  -8.1561
    -8.1491  -8.0547  -8.0547  -8.0363  -8.0363  -8.0002  -8.0002  -7.9720
    -7.9576  -7.8986  -7.8986  -7.8728  -7.5584  -7.5584  -7.5386  -7.5386
    -7.4305  -7.4305  -7.3840  -7.3633  -7.3633  -7.3023  -7.2832  -7.2832
    -7.1476  -7.1476  -6.9727  -6.8516  -6.8516  -6.7415  -6.6394  -6.6394
    -5.6987  -5.6987  -5.4857  -5.4857  -5.1587  -5.1263  -5.1263  -5.0437
    -5.0437  -4.6445  -4.6021  -4.6021  -4.5597  -4.5593  -4.4645  -4.4645
    -4.1839  -4.1839  -3.9136  -3.9136  -3.5414  -3.4406  -3.3542  -3.3542
    -3.2253  -3.0219  -3.0219  -2.9960  -2.8402  -2.8402  -2.7503  -2.7503
    -2.4374  -2.1886  -2.1121  -2.0643  -2.0643  -2.0468  -2.0467  -1.9760
    -1.9300  -1.9159  -1.7107  -1.5338  -1.5338  -1.4070  -1.3791  -1.3791
    -1.3291  -1.3109  -1.3109  -1.2683  -0.9988  -0.9988  -0.8310  -0.8310
    -0.7486  -0.7482  -0.6819

          k = 0.4000 0.2802 0.0000 (579930 PWs)   bands (ev):

   -60.6839 -60.6786 -60.6648 -60.6611 -60.6446 -60.6430 -60.6430 -60.6368
   -60.6325 -60.6316 -60.6295 -60.6283 -60.6170 -60.6153 -60.6051 -60.6015
   -60.5967 -60.5914 -36.0395 -36.0267 -35.9774 -35.9557 -35.9471 -35.9416
   -35.9313 -35.9189 -35.8912 -35.8872 -35.8707 -35.8467 -35.8069 -35.7792
   -35.7562 -35.7413 -35.7204 -35.7126 -35.7050 -35.7042 -35.6946 -35.6695
   -35.6656 -35.6519 -35.6503 -35.6357 -35.6331 -35.6320 -35.6269 -35.6157
   -35.6157 -35.6106 -35.5937 -35.5936 -35.5912 -35.5860 -35.5781 -35.5726
   -35.5725 -35.5632 -35.5490 -35.5486 -35.5394 -35.4835 -35.4160 -35.3967
   -35.3718 -35.3709 -35.3578 -35.3372 -35.2912 -35.2910 -35.2493 -35.2130
   -18.8599 -18.8124 -18.6126 -18.5806 -18.5778 -18.5412 -18.5023 -18.4983
   -18.4308 -18.4121 -18.4069 -18.3868 -18.3846 -18.3770 -18.3314 -18.3193
   -18.3020 -18.2909 -11.7707 -11.7256 -11.6435 -11.5454 -11.5135 -11.4589
   -11.4362 -11.4337 -11.3485 -11.3157 -11.2881 -11.1569 -11.0169 -10.7963
   -10.7360 -10.5235 -10.4394 -10.2492  -9.8512  -9.6247  -9.5997  -9.3917
    -9.2977  -9.0892  -9.0671  -8.9730  -8.8355  -8.8138  -8.6813  -8.6186
    -8.6070  -8.6067  -8.6063  -8.5455  -8.5357  -8.5218  -8.4772  -8.4359
    -8.4145  -8.3980  -8.3671  -8.3391  -8.3368  -8.2687  -8.1363  -8.1164
    -8.1087  -8.0881  -8.0672  -8.0601  -8.0074  -7.9683  -7.9643  -7.9522
    -7.9496  -7.9242  -7.8885  -7.8879  -7.8830  -7.8461  -7.6233  -7.5549
    -7.3822  -7.3412  -7.2969  -7.2645  -7.2562  -7.2453  -7.2155  -7.1801
    -7.1792  -7.0562  -6.9927  -6.9911  -6.7752  -6.7670  -6.6460  -6.4412
    -5.7206  -5.6157  -5.6090  -5.4877  -5.4746  -5.4227  -5.3056  -4.9346
    -4.9331  -4.7754  -4.5951  -4.5623  -4.3918  -4.2804  -4.2727  -4.2200
    -4.1928  -4.0259  -3.9650  -3.6799  -3.6389  -3.6119  -3.3678  -3.3211
    -3.3160  -3.1338  -2.9301  -2.8350  -2.7789  -2.7751  -2.7681  -2.7206
    -2.5907  -2.4385  -2.1094  -2.1077  -2.0666  -2.0263  -2.0132  -1.9849
    -1.8823  -1.7756  -1.6192  -1.5853  -1.5286  -1.4858  -1.4204  -1.4200
    -1.3738  -1.3603  -1.3411  -1.3000  -1.2859  -1.1820  -1.1653  -0.9319
    -0.9116  -0.8168  -0.6431

          k = 0.4000 0.5605 0.0000 (579684 PWs)   bands (ev):

   -60.6797 -60.6748 -60.6732 -60.6688 -60.6416 -60.6394 -60.6342 -60.6335
   -60.6317 -60.6306 -60.6297 -60.6286 -60.6248 -60.6242 -60.6011 -60.5983
   -60.5967 -60.5933 -36.0574 -36.0531 -35.9650 -35.9347 -35.9296 -35.9263
   -35.9152 -35.9001 -35.8996 -35.8944 -35.8813 -35.8472 -35.8103 -35.7900
   -35.7726 -35.7580 -35.7448 -35.7027 -35.6969 -35.6874 -35.6860 -35.6847
   -35.6760 -35.6553 -35.6407 -35.6334 -35.6249 -35.6245 -35.6197 -35.6191
   -35.6182 -35.6121 -35.6104 -35.6049 -35.6041 -35.6013 -35.5733 -35.5695
   -35.5663 -35.5605 -35.5271 -35.5032 -35.4804 -35.4603 -35.4567 -35.4430
   -35.4233 -35.4035 -35.3417 -35.3347 -35.2673 -35.2542 -35.2535 -35.2277
   -18.8003 -18.7559 -18.7130 -18.6729 -18.5390 -18.5026 -18.4790 -18.4717
   -18.4667 -18.4476 -18.4289 -18.4229 -18.3705 -18.3513 -18.3374 -18.3221
   -18.2747 -18.2710 -11.7916 -11.7764 -11.5608 -11.5042 -11.4871 -11.4858
   -11.4417 -11.4111 -11.3707 -11.3505 -11.2591 -11.1470 -11.0513 -10.9297
   -10.6083 -10.5057 -10.4038 -10.3095  -9.8028  -9.7282  -9.5545  -9.4866
    -9.0759  -8.9292  -8.8873  -8.8428  -8.8382  -8.8271  -8.8040  -8.7954
    -8.7356  -8.7254  -8.6743  -8.6054  -8.5835  -8.5718  -8.4706  -8.4334
    -8.4269  -8.4170  -8.3602  -8.3327  -8.2189  -8.2038  -8.1707  -8.1068
    -8.0909  -8.0523  -8.0478  -8.0285  -8.0010  -8.0003  -7.9861  -7.9787
    -7.9470  -7.9382  -7.9338  -7.9285  -7.9131  -7.8909  -7.8072  -7.7501
    -7.3766  -7.3655  -7.2815  -7.2561  -7.1164  -7.0960  -7.0887  -7.0868
    -7.0467  -7.0409  -7.0327  -6.9992  -6.8324  -6.8161  -6.3808  -6.1878
    -6.0388  -5.8714  -5.6646  -5.5202  -5.4548  -5.3831  -5.3015  -5.2022
    -5.2016  -5.0547  -4.1520  -4.1190  -4.1124  -4.0648  -4.0644  -4.0638
    -4.0594  -3.9097  -3.8349  -3.8024  -3.7506  -3.6097  -3.5971  -3.3289
    -3.3230  -3.2022  -3.0804  -2.9150  -2.7804  -2.6838  -2.5584  -2.5576
    -2.4888  -2.2718  -2.2252  -2.1382  -2.0950  -2.0850  -2.0713  -2.0652
    -2.0299  -2.0206  -2.0062  -1.8636  -1.5111  -1.4711  -1.4617  -1.4518
    -1.4126  -1.3702  -1.3331  -1.3329  -1.2409  -1.1590  -1.1564  -0.9932
    -0.8416  -0.7803  -0.7645

     the Fermi energy is    -3.7112 ev

!    total energy              =   -2464.13891077 Ry
     estimated scf accuracy    <          9.0E-09 Ry
     smearing contrib. (-TS)   =      -0.01362228 Ry
     internal energy E=F+TS    =   -2464.12528849 Ry

     The total energy is F=E-TS. E is the sum of the following terms:
     one-electron contribution =  -39874.76373798 Ry
     hartree contribution      =   19874.57591370 Ry
     xc contribution           =    -370.45700814 Ry
     ewald contribution        =   17906.51954393 Ry

     convergence has been achieved in  17 iterations

     Forces acting on atoms (cartesian axes, Ry/au):

     atom    1 type  1   force =     0.00000000   -0.00000635    0.00070144
     atom    2 type  1   force =     0.00000000   -0.00006709    0.00073426
     atom    3 type  1   force =     0.00000000    0.00006285    0.00073136
     atom    4 type  1   force =    -0.00008029   -0.00000338   -0.00061621
     atom    5 type  1   force =    -0.00007279   -0.00003890   -0.00058740
     atom    6 type  1   force =    -0.00008995   -0.00007217   -0.00061558
     atom    7 type  1   force =    -0.00009199   -0.00000677    0.00066486
     atom    8 type  1   force =    -0.00008021   -0.00003683    0.00067150
     atom    9 type  1   force =    -0.00008127    0.00003442    0.00067486
     atom   10 type  1   force =     0.00000000   -0.00002560   -0.00066213
     atom   11 type  1   force =     0.00000000   -0.00002958   -0.00065253
     atom   12 type  1   force =     0.00000000   -0.00006373   -0.00066960
     atom   13 type  1   force =     0.00009199   -0.00000677    0.00066486
     atom   14 type  1   force =     0.00008021   -0.00003683    0.00067150
     atom   15 type  1   force =     0.00008127    0.00003442    0.00067486
     atom   16 type  1   force =     0.00008029   -0.00000338   -0.00061621
     atom   17 type  1   force =     0.00007279   -0.00003890   -0.00058740
     atom   18 type  1   force =     0.00008995   -0.00007217   -0.00061558
     atom   19 type  2   force =     0.00480803    0.00001699   -0.00218242
     atom   20 type  2   force =     0.00479372    0.00001170   -0.00216884
     atom   21 type  2   force =     0.00480538    0.00000557   -0.00217965
     atom   22 type  2   force =    -0.00477451    0.00000853    0.00215140
     atom   23 type  2   force =    -0.00476109    0.00000376    0.00214149
     atom   24 type  2   force =    -0.00476166    0.00001660    0.00214348
     atom   25 type  2   force =     0.00476319    0.00001252    0.00214480
     atom   26 type  2   force =     0.00476071    0.00000617    0.00214436
     atom   27 type  2   force =     0.00476893    0.00001020    0.00215462
     atom   28 type  2   force =    -0.00479716    0.00001385   -0.00217715
     atom   29 type  2   force =     0.00479394    0.00001140   -0.00217749
     atom   30 type  2   force =    -0.00479221    0.00001114   -0.00218217
     atom   31 type  2   force =     0.00480313    0.00001150   -0.00217841
     atom   32 type  2   force =    -0.00479653    0.00000858   -0.00218079
     atom   33 type  2   force =     0.00479796    0.00001073   -0.00217891
     atom   34 type  2   force =    -0.00476493    0.00001037    0.00214771
[...]
    -1.9720  -1.8773  -1.7614  -1.7362  -1.7171  -1.6313  -1.5958  -1.5882
    -1.4010  -1.2163  -1.2158  -1.2130  -1.1146  -1.0884  -1.0146  -0.9799
    -0.9626  -0.9554  -0.8343

          k = 0.2000 0.5605 0.0000 (579751 PWs)   bands (ev):

   -60.6920 -60.6852 -60.6774 -60.6722 -60.6605 -60.6572 -60.6438 -60.6421
   -60.6401 -60.6368 -60.6349 -60.6332 -60.6314 -60.6314 -60.6163 -60.6143
   -60.6033 -60.5996 -36.0543 -36.0416 -36.0060 -35.9798 -35.9385 -35.9134
   -35.8984 -35.8984 -35.8961 -35.8954 -35.8672 -35.8494 -35.8323 -35.8150
   -35.8134 -35.7385 -35.7297 -35.7100 -35.7061 -35.6970 -35.6795 -35.6762
   -35.6645 -35.6623 -35.6547 -35.6438 -35.6412 -35.6276 -35.6249 -35.6218
   -35.6167 -35.6166 -35.6142 -35.6139 -35.6115 -35.5935 -35.5905 -35.5886
   -35.5719 -35.5714 -35.5697 -35.5618 -35.5220 -35.4977 -35.4411 -35.3952
   -35.3938 -35.3690 -35.3647 -35.3482 -35.2981 -35.2966 -35.2542 -35.2197
   -18.8064 -18.7170 -18.6782 -18.6016 -18.5639 -18.4992 -18.4558 -18.4517
   -18.4403 -18.4106 -18.4055 -18.3957 -18.3634 -18.3277 -18.3090 -18.2849
   -18.2674 -18.2563 -11.7328 -11.6880 -11.6212 -11.5790 -11.5729 -11.5680
   -11.4551 -11.3602 -11.3313 -11.2715 -11.2712 -11.1707 -10.8838 -10.8383
   -10.7598 -10.7322 -10.2625 -10.1767  -9.9707  -9.8958  -9.2687  -9.2239
    -9.2165  -8.9966  -8.9715  -8.8504  -8.8200  -8.8081  -8.7494  -8.7407
    -8.7292  -8.7065  -8.7035  -8.6369  -8.5259  -8.5208  -8.5098  -8.4705
    -8.4307  -8.3604  -8.3482  -8.3071  -8.2868  -8.2365  -8.2048  -8.1082
    -8.1002  -8.0769  -8.0679  -8.0297  -8.0124  -7.9835  -7.9486  -7.9346
    -7.9119  -7.8965  -7.8712  -7.8695  -7.8542  -7.7804  -7.7800  -7.6913
    -7.4959  -7.4957  -7.2203  -7.1823  -7.1793  -7.1590  -7.1520  -7.1480
    -7.1198  -7.1112  -6.9425  -6.8997  -6.5579  -6.5424  -6.5264  -6.1745
    -5.9879  -5.9556  -5.8561  -5.7025  -5.6200  -5.3863  -5.0872  -5.0679
    -4.8895  -4.8579  -4.4668  -4.3475  -4.2642  -4.1484  -4.1088  -4.0432
    -4.0209  -3.9989  -3.9856  -3.8854  -3.6717  -3.6014  -3.5585  -3.4798
    -3.4707  -3.3799  -3.1830  -2.6688  -2.4872  -2.4648  -2.4101  -2.3581
    -2.3284  -2.2874  -2.1451  -2.1108  -2.1015  -2.0175  -1.9736  -1.9598
    -1.9586  -1.9537  -1.9124  -1.7272  -1.7055  -1.6857  -1.6323  -1.5767
    -1.4772  -1.4275  -1.3718  -1.3052  -1.2684  -1.2665  -1.2642  -1.2555
    -1.2338  -1.0696  -0.9021

          k = 0.4000 0.0000 0.0000 (579958 PWs)   bands (ev):

   -60.6944 -60.6891 -60.6643 -60.6643 -60.6616 -60.6616 -60.6528 -60.6433
   -60.6433 -60.6420 -60.6379 -60.6379 -60.6198 -60.6198 -60.6171 -60.6171
   -60.6056 -60.6001 -36.0064 -36.0064 -35.9856 -35.9856 -35.9781 -35.9781
   -35.9469 -35.9469 -35.8953 -35.8616 -35.8309 -35.8309 -35.8174 -35.8022
   -35.7919 -35.7919 -35.7156 -35.7048 -35.6989 -35.6811 -35.6678 -35.6642
   -35.6642 -35.6600 -35.6600 -35.6567 -35.6567 -35.6542 -35.6287 -35.6287
   -35.6204 -35.6204 -35.6041 -35.6041 -35.5927 -35.5927 -35.5886 -35.5886
   -35.5852 -35.5784 -35.5757 -35.5618 -35.5459 -35.5117 -35.3902 -35.3902
   -35.3570 -35.3570 -35.3472 -35.3472 -35.3339 -35.3339 -35.2565 -35.2166
   -18.8574 -18.8088 -18.5717 -18.5312 -18.4937 -18.4937 -18.4887 -18.4851
   -18.4646 -18.4646 -18.3294 -18.3294 -18.3281 -18.3281 -18.3186 -18.3185
   -18.3109 -18.3109 -11.7122 -11.7122 -11.6392 -11.6392 -11.5211 -11.4514
   -11.4163 -11.4130 -11.4130 -11.2675 -11.2463 -11.2463 -10.8757 -10.8757
   -10.6594 -10.6594 -10.4221 -10.2355  -9.8580  -9.6082  -9.4728  -9.4728
    -9.2526  -9.2526  -9.1035  -9.0113  -8.8031  -8.7874  -8.6431  -8.6332
    -8.5283  -8.5132  -8.5132  -8.4702  -8.4702  -8.4688  -8.4688  -8.4369
    -8.4369  -8.4156  -8.3517  -8.3517  -8.3272  -8.3272  -8.1588  -8.1505
    -8.1357  -8.0374  -8.0374  -8.0196  -8.0196  -8.0012  -8.0012  -7.9713
    -7.9362  -7.9012  -7.9012  -7.8512  -7.5437  -7.5437  -7.5229  -7.5229
    -7.4159  -7.4159  -7.3874  -7.3498  -7.3498  -7.3060  -7.2801  -7.2801
    -7.1455  -7.1455  -6.9606  -6.8462  -6.8462  -6.7299  -6.6357  -6.6357
    -5.7060  -5.7060  -5.4956  -5.4956  -5.1499  -5.1326  -5.1326  -5.0529
    -5.0529  -4.6368  -4.6171  -4.6171  -4.5707  -4.5706  -4.4808  -4.4808
    -4.1971  -4.1971  -3.9266  -3.9266  -3.5487  -3.4488  -3.3745  -3.3745
    -3.2321  -3.0422  -3.0422  -3.0032  -2.8396  -2.8396  -2.7489  -2.7489
    -2.4372  -2.2128  -2.1412  -2.0736  -2.0736  -2.0585  -2.0585  -2.0059
    -1.9461  -1.9185  -1.7230  -1.5532  -1.5532  -1.4418  -1.4015  -1.4015
    -1.3340  -1.3232  -1.3232  -1.3041  -1.0119  -1.0119  -0.8361  -0.8361
    -0.7500  -0.7500  -0.6880

          k = 0.4000 0.2802 0.0000 (579930 PWs)   bands (ev):

   -60.6931 -60.6878 -60.6740 -60.6704 -60.6539 -60.6523 -60.6522 -60.6461
   -60.6418 -60.6409 -60.6388 -60.6376 -60.6263 -60.6247 -60.6145 -60.6108
   -60.6061 -60.6008 -36.0442 -36.0314 -35.9821 -35.9609 -35.9522 -35.9464
   -35.9366 -35.9241 -35.8976 -35.8920 -35.8770 -35.8516 -35.8128 -35.7853
   -35.7616 -35.7474 -35.7258 -35.7192 -35.7127 -35.7103 -35.7023 -35.6774
   -35.6733 -35.6594 -35.6571 -35.6436 -35.6410 -35.6396 -35.6348 -35.6236
   -35.6236 -35.6185 -35.6016 -35.6007 -35.5991 -35.5931 -35.5860 -35.5804
   -35.5801 -35.5701 -35.5559 -35.5556 -35.5464 -35.4910 -35.4233 -35.4043
   -35.3793 -35.3785 -35.3653 -35.3447 -35.2991 -35.2990 -35.2574 -35.2212
   -18.8364 -18.7890 -18.5912 -18.5571 -18.5565 -18.5176 -18.4777 -18.4738
   -18.4107 -18.3908 -18.3869 -18.3654 -18.3625 -18.3550 -18.3111 -18.2990
   -18.2821 -18.2709 -11.7637 -11.7187 -11.6392 -11.5413 -11.5177 -11.4589
   -11.4425 -11.4345 -11.3462 -11.3184 -11.2892 -11.1572 -11.0150 -10.7968
   -10.7369 -10.5264 -10.4446 -10.2559  -9.8405  -9.6133  -9.5912  -9.3829
    -9.2891  -9.0830  -9.0555  -8.9610  -8.8189  -8.7970  -8.6741  -8.6138
    -8.5997  -8.5933  -8.5918  -8.5284  -8.5242  -8.5146  -8.4732  -8.4169
    -8.4053  -8.3841  -8.3606  -8.3330  -8.3264  -8.2633  -8.1299  -8.1014
    -8.0905  -8.0737  -8.0610  -8.0492  -7.9949  -7.9635  -7.9540  -7.9476
    -7.9388  -7.9267  -7.8907  -7.8676  -7.8669  -7.8282  -7.6070  -7.5395
    -7.3853  -7.3404  -7.3002  -7.2514  -7.2427  -7.2329  -7.2150  -7.1735
    -7.1692  -7.0523  -6.9837  -6.9809  -6.7692  -6.7558  -6.6431  -6.4400
    -5.7253  -5.6198  -5.6186  -5.4942  -5.4820  -5.4350  -5.3008  -4.9464
    -4.9354  -4.7906  -4.6034  -4.5737  -4.4008  -4.2955  -4.2771  -4.2340
    -4.2087  -4.0377  -3.9768  -3.6940  -3.6577  -3.6194  -3.3768  -3.3341
    -3.3287  -3.1537  -2.9383  -2.8456  -2.7955  -2.7752  -2.7695  -2.7152
    -2.5929  -2.4507  -2.1373  -2.1121  -2.0731  -2.0428  -2.0276  -2.0139
    -1.8878  -1.7907  -1.6247  -1.5822  -1.5508  -1.4901  -1.4541  -1.4347
    -1.3881  -1.3840  -1.3599  -1.3205  -1.3054  -1.1952  -1.1762  -0.9340
    -0.9114  -0.8316  -0.6486

          k = 0.4000 0.5605 0.0000 (579684 PWs)   bands (ev):

   -60.6889 -60.6840 -60.6824 -60.6781 -60.6509 -60.6487 -60.6435 -60.6428
   -60.6410 -60.6399 -60.6390 -60.6379 -60.6341 -60.6336 -60.6104 -60.6077
   -60.6061 -60.6027 -36.0619 -36.0576 -35.9697 -35.9394 -35.9351 -35.9310
   -35.9208 -35.9061 -35.9055 -35.8991 -35.8868 -35.8527 -35.8161 -35.7960
   -35.7784 -35.7643 -35.7511 -35.7093 -35.7046 -35.6951 -35.6924 -35.6918
   -35.6837 -35.6611 -35.6484 -35.6413 -35.6323 -35.6311 -35.6276 -35.6270
   -35.6261 -35.6201 -35.6183 -35.6128 -35.6120 -35.6076 -35.5812 -35.5772
   -35.5742 -35.5681 -35.5343 -35.5104 -35.4877 -35.4677 -35.4640 -35.4505
   -35.4307 -35.4110 -35.3492 -35.3422 -35.2753 -35.2622 -35.2616 -35.2358
   -18.7774 -18.7329 -18.6908 -18.6508 -18.5160 -18.4796 -18.4569 -18.4476
   -18.4429 -18.4253 -18.4058 -18.4000 -18.3507 -18.3316 -18.3175 -18.3022
   -18.2551 -18.2514 -11.7841 -11.7689 -11.5584 -11.5073 -11.4887 -11.4852
   -11.4395 -11.4165 -11.3748 -11.3502 -11.2563 -11.1445 -11.0511 -10.9296
   -10.6109 -10.5099 -10.4083 -10.3153  -9.7913  -9.7163  -9.5454  -9.4772
    -9.0688  -8.9177  -8.8822  -8.8324  -8.8299  -8.8151  -8.7910  -8.7858
    -8.7260  -8.7149  -8.6700  -8.5943  -8.5678  -8.5583  -8.4520  -8.4224
    -8.4106  -8.4033  -8.3513  -8.3233  -8.2127  -8.1904  -8.1638  -8.1011
    -8.0828  -8.0388  -8.0352  -8.0162  -7.9831  -7.9814  -7.9787  -7.9624
    -7.9460  -7.9275  -7.9226  -7.9156  -7.9144  -7.8937  -7.7903  -7.7340
    -7.3787  -7.3664  -7.2837  -7.2570  -7.1066  -7.0884  -7.0770  -7.0749
    -7.0375  -7.0327  -7.0219  -6.9934  -6.8244  -6.8062  -6.3805  -6.1892
    -6.0407  -5.8753  -5.6665  -5.5191  -5.4669  -5.3879  -5.3189  -5.2097
    -5.2049  -5.0679  -4.1618  -4.1339  -4.1240  -4.0780  -4.0771  -4.0735
    -4.0673  -3.9264  -3.8474  -3.8113  -3.7618  -3.6189  -3.6122  -3.3427
    -3.3352  -3.2140  -3.0966  -2.9277  -2.7917  -2.7004  -2.5618  -2.5495
    -2.4795  -2.2770  -2.2306  -2.1272  -2.1093  -2.0960  -2.0732  -2.0546
    -2.0491  -2.0420  -2.0322  -1.8710  -1.5368  -1.4920  -1.4894  -1.4738
    -1.4294  -1.3961  -1.3640  -1.3476  -1.2523  -1.1578  -1.1563  -1.0041
    -0.8592  -0.7882  -0.7837

     the Fermi energy is    -3.7234 ev

!    total energy              =   -2464.13956405 Ry
     estimated scf accuracy    <          1.0E-10 Ry
     smearing contrib. (-TS)   =      -0.01361931 Ry
     internal energy E=F+TS    =   -2464.12594474 Ry

     The total energy is F=E-TS. E is the sum of the following terms:
     one-electron contribution =  -39858.61457702 Ry
     hartree contribution      =   19866.41724331 Ry
     xc contribution           =    -370.30865202 Ry
     ewald contribution        =   17898.38004099 Ry

     convergence has been achieved in  17 iterations

     Forces acting on atoms (cartesian axes, Ry/au):

     atom    1 type  1   force =     0.00000000   -0.00000488    0.00006885
     atom    2 type  1   force =     0.00000000    0.00000060    0.00007389
     atom    3 type  1   force =     0.00000000    0.00000538    0.00006976
     atom    4 type  1   force =    -0.00000547   -0.00000362   -0.00006873
     atom    5 type  1   force =    -0.00000112    0.00000294   -0.00006824
     atom    6 type  1   force =    -0.00000128   -0.00000428   -0.00006950
     atom    7 type  1   force =    -0.00000486   -0.00000646    0.00006390
     atom    8 type  1   force =    -0.00000486    0.00000662    0.00006806
     atom    9 type  1   force =     0.00000507    0.00000124    0.00006564
     atom   10 type  1   force =     0.00000000   -0.00001068   -0.00007465
     atom   11 type  1   force =     0.00000000    0.00000992   -0.00007759
     atom   12 type  1   force =     0.00000000   -0.00000430   -0.00007643
     atom   13 type  1   force =     0.00000486   -0.00000646    0.00006390
     atom   14 type  1   force =     0.00000486    0.00000662    0.00006806
     atom   15 type  1   force =    -0.00000507    0.00000124    0.00006564
     atom   16 type  1   force =     0.00000547   -0.00000362   -0.00006873
     atom   17 type  1   force =     0.00000112    0.00000294   -0.00006824
     atom   18 type  1   force =     0.00000128   -0.00000428   -0.00006950
     atom   19 type  2   force =     0.00004985    0.00000106    0.00000628
     atom   20 type  2   force =     0.00005539    0.00000216    0.00000309
     atom   21 type  2   force =     0.00005076    0.00000227    0.00000533
     atom   22 type  2   force =    -0.00004438   -0.00000096   -0.00000389
     atom   23 type  2   force =    -0.00004855   -0.00000018   -0.00000322
     atom   24 type  2   force =    -0.00004717   -0.00000249   -0.00000258
     atom   25 type  2   force =     0.00005092   -0.00000116   -0.00000149
     atom   26 type  2   force =     0.00005211   -0.00000113   -0.00000164
     atom   27 type  2   force =     0.00004890   -0.00000138   -0.00000333
     atom   28 type  2   force =    -0.00004674    0.00000153    0.00000309
     atom   29 type  2   force =     0.00004891    0.00000240    0.00000246
     atom   30 type  2   force =    -0.00005724    0.00000196    0.00000370
     atom   31 type  2   force =     0.00005797    0.00000207    0.00000357
     atom   32 type  2   force =    -0.00004805    0.00000204    0.00000376
     atom   33 type  2   force =     0.00004955    0.00000107    0.00000316
     atom   34 type  2   force =    -0.00004022   -0.00000163    0.00000042
     atom   35 type  2   force =     0.00004022   -0.00000163    0.00000042
     atom   36 type  2   force =    -0.00005184   -0.00000092   -0.00000067
     atom   37 type  2   force =     0.00005184   -0.00000092   -0.00000067
     atom   38 type  2   force =    -0.00004781   -0.00000115   -0.00000110
     atom   39 type  2   force =     0.00004781   -0.00000115   -0.00000110
     atom   40 type  2   force =    -0.00004891    0.00000240    0.00000246
     atom   41 type  2   force =     0.00004674    0.00000153    0.00000309
     atom   42 type  2   force =    -0.00005797    0.00000207    0.00000357
     atom   43 type  2   force =     0.00005724    0.00000196    0.00000370
     atom   44 type  2   force =    -0.00004955    0.00000107    0.00000316
     atom   45 type  2   force =     0.00004805    0.00000204    0.00000376
     atom   46 type  2   force =    -0.00004890   -0.00000138   -0.00000333
     atom   47 type  2   force =     0.00004438   -0.00000096   -0.00000389
     atom   48 type  2   force =    -0.00005211   -0.00000113   -0.00000164
     atom   49 type  2   force =    -0.00005076    0.00000227    0.00000533
     atom   50 type  2   force =    -0.00005539    0.00000216    0.00000309
     atom   51 type  2   force =    -0.00004985    0.00000106    0.00000628
     atom   52 type  2   force =    -0.00005092   -0.00000116   -0.00000149
     atom   53 type  2   force =     0.00004717   -0.00000249   -0.00000258
     atom   54 type  2   force =     0.00004855   -0.00000018   -0.00000322

     Total force =     0.000422     Total SCF correction =     0.000018
     Energy error            =      3.4E-07 Ry
     Gradient error          =      7.8E-05 Ry/Bohr

     bfgs converged in   8 scf cycles and   7 bfgs steps
     (criteria: energy <  1.0E-05 Ry, force <  1.0E-04 Ry/Bohr)

     End of BFGS Geometry Optimization

     Final energy             =   -2464.1395640530 Ry

     File /home/fernando/serse/temp/NB.bfgs deleted, as requested
Begin final coordinates

ATOMIC_POSITIONS (angstrom)
Nb            0.0000000000        1.7586535062        1.2414422335
Nb            0.0000000000        5.2986161429        1.2414418557
Nb            0.0000000000        8.8386190568        1.2414447988
Nb            2.4799839165       10.6086227142        1.0732387409
Nb            2.4799877772        7.0686259502        1.0732477990
Nb            2.4799810602        3.5286470334        1.0732341820
Nb            4.9599695869        1.7586500769        1.2414330715
Nb            4.9599733037        5.2986266256        1.2414245705
Nb            4.9599733723        8.8386114884        1.2414279038
Nb            7.4399669640       10.6086164426        1.0732108316
Nb            7.4399669640        7.0686275891        1.0732083176
Nb            7.4399669640        3.5286512973        1.0732056919
Nb            9.9199643411        1.7586500769        1.2414330715
Nb            9.9199606243        5.2986266256        1.2414245705
Nb            9.9199605557        8.8386114884        1.2414279038
Nb           12.3999500115       10.6086227142        1.0732387409
Nb           12.3999461508        7.0686259502        1.0732477990
Nb           12.3999528678        3.5286470334        1.0732341820
C             0.6832097269       10.6086234796        0.0217649399
C             0.6832082963        7.0686277634        0.0217868645
C             0.6832101336        3.5286440484        0.0217577099
C             1.7967667921        1.7586758773        2.2929057774
C             1.7967721051        5.2986429814        2.2929022631
C             1.7967716394        8.8386474294        2.2928986068
C             3.1631941571        8.8386420649        2.2928891393
C             3.1631946950        5.2986481377        2.2928914004
C             3.1631905483        1.7586759662        2.2928994214
C             4.2767554260       10.6086207116        0.0217731295
C             5.6431784926       10.6086174469        0.0217656123
C             4.2767588693        7.0686289989        0.0217686375
C             5.6431761389        7.0686293004        0.0217566541
C             4.2767546434        3.5286449274        0.0217639052
C             5.6431772577        3.5286478686        0.0217551968
C             6.7567526904        1.7586757646        2.2928634884
C             8.1231812376        1.7586757646        2.2928634884
C             6.7567563668        5.2986534921        2.2928672465
C             8.1231775612        5.2986534921        2.2928672465
C             6.7567553085        8.8386364781        2.2928681264
C             8.1231786195        8.8386364781        2.2928681264
C             9.2367554354       10.6086174469        0.0217656123
C            10.6031785020       10.6086207116        0.0217731295
C             9.2367577891        7.0686293004        0.0217566541
C            10.6031750587        7.0686289989        0.0217686375
C             9.2367566703        3.5286478686        0.0217551968
C            10.6031792846        3.5286449274        0.0217639052
C            11.7167433797        1.7586759662        2.2928994214
C            13.0831671359        1.7586758773        2.2929057774
C            11.7167392330        5.2986481377        2.2928914004
C            14.1967237944        3.5286440484        0.0217577099
C            14.1967256317        7.0686277634        0.0217868645
C            14.1967242011       10.6086234796        0.0217649399
C            11.7167397709        8.8386420649        2.2928891393
C            13.0831622886        8.8386474294        2.2928986068
C            13.0831618229        5.2986429814        2.2929022631
End final coordinates



     Writing output data file /home/fernando/serse/temp/NB.save/
 
     init_run     :     86.55s CPU     88.22s WALL (       1 calls)
     electrons    :  45815.42s CPU  47508.17s WALL (       8 calls)
     update_pot   :     18.46s CPU     18.60s WALL (       7 calls)
     forces       :    217.09s CPU    217.99s WALL (       8 calls)

     Called by init_run:
     wfcinit      :     81.47s CPU     82.90s WALL (       1 calls)
     potinit      :      1.49s CPU      1.56s WALL (       1 calls)
     hinit0       :      0.92s CPU      0.97s WALL (       1 calls)

     Called by electrons:
     c_bands      :  39325.30s CPU  40715.99s WALL (     163 calls)
     sum_band     :   6394.83s CPU   6424.56s WALL (     163 calls)
     v_of_rho     :     66.09s CPU     71.96s WALL (     165 calls)
     mix_rho      :     28.55s CPU     33.36s WALL (     163 calls)

     Called by c_bands:
     init_us_2    :    274.44s CPU    275.88s WALL (    3015 calls)
     cegterg      :  38304.64s CPU  38626.52s WALL (    1467 calls)

     Called by *egterg:
     cdiaghg      :    695.23s CPU    696.86s WALL (    8097 calls)
     h_psi        :  27578.93s CPU  27784.81s WALL (    8223 calls)
     g_psi        :     82.43s CPU     82.70s WALL (    6747 calls)

     Called by h_psi:
     h_psi:calbec :   2209.98s CPU   2215.97s WALL (    8223 calls)
     vloc_psi     :  22916.87s CPU  23021.98s WALL (    8223 calls)
     add_vuspsi   :   2274.64s CPU   2279.82s WALL (    8223 calls)

     General routines
     calbec       :   2371.51s CPU   2377.90s WALL (    8511 calls)
     fft          :     44.13s CPU     44.44s WALL (    1671 calls)
     ffts         :      3.98s CPU      4.00s WALL (     163 calls)
     fftw         :  20740.07s CPU  20827.59s WALL ( 2028947 calls)
 
     Parallel routines
 
     PWSCF        :     12h49m CPU     13h32m WALL

 
   This run was terminated on:   5:37:19   8Feb2025            

=------------------------------------------------------------------------------=
   JOB DONE.
=------------------------------------------------------------------------------=
