
     Program PWSCF v.6.8 starts on 16Jan2025 at 17:43:22 

     This program is part of the open-source Quantum ESPRESSO suite
     for quantum simulation of materials; please cite
         "P. Giannozzi et al., J. Phys.:Condens. Matter 21 395502 (2009);
         "P. Giannozzi et al., J. Phys.:Condens. Matter 29 465901 (2017);
         "P. Giannozzi et al., J. Chem. Phys. 152 154105 (2020);
          URL http://www.quantum-espresso.org", 
     in publications or presentations arising from this work. More details at
     http://www.quantum-espresso.org/quote

     Parallel version (MPI & OpenMP), running on      24 processor cores
     Number of MPI processes:                24
     Threads/MPI process:                     1

     MPI processes distributed on     1 nodes
     R & G space division:  proc/nbgrp/npool/nimage =      24
     184785 MiB available memory on the printing compute node when the environment starts
 
     Waiting for input...
     Reading input from standard input

     Current dimensions of program PWSCF are:
     Max number of different atomic species (ntypx) = 10
     Max number of k-points (npk) =  40000
     Max angular momentum in pseudopotentials (lmaxx) =  4
     Message from routine setup:
     no reason to have ecutrho>4*ecutwfc
     Message from routine setup:
     using ibrav=0 with symmetry is DISCOURAGED, use correct ibrav instead

     Subspace diagonalization in iterative solution of the eigenvalue problem:
     a serial algorithm will be used

 
     Parallelization info
     --------------------
     sticks:   dense  smooth     PW     G-vecs:    dense   smooth      PW
     Min          83      50     13                13225     6152     899
     Max          85      51     14                13237     6159     922
     Sum        1997    1203    333               317575   147699   21897
 
     Using Slab Decomposition
 

     Title: 
     NB relax                                                                   


     bravais-lattice index     =            0
     lattice parameter (alat)  =       9.3730  a.u.
     unit-cell volume          =    2350.8095 (a.u.)^3
     number of atoms/cell      =            6
     number of atomic types    =            2
     number of electrons       =        42.00
     number of Kohn-Sham states=           25
     kinetic-energy cutoff     =      60.0000  Ry
     charge density cutoff     =     400.0000  Ry
     scf convergence threshold =      1.0E-08
     mixing beta               =       0.7000
     number of iterations used =            8  plain     mixing
     energy convergence thresh.=      1.0E-05
     force convergence thresh. =      1.0E-04
     Exchange-correlation= SLA-PW-PBX-PBC
                           (   1   4   3   4   0   0   0)
     nstep                     =          100


     celldm(1)=   9.373000  celldm(2)=   0.000000  celldm(3)=   0.000000
     celldm(4)=   0.000000  celldm(5)=   0.000000  celldm(6)=   0.000000

     crystal axes: (cart. coord. in units of alat)
               a(1) = (   1.000000   0.000000   0.000000 )  
               a(2) = (   0.000000   0.713710   0.000000 )  
               a(3) = (   0.000000   0.000000   4.000000 )  

     reciprocal axes: (cart. coord. in units 2 pi/alat)
               b(1) = (  1.000000  0.000000  0.000000 )  
               b(2) = (  0.000000  1.401130  0.000000 )  
               b(3) = (  0.000000  0.000000  0.250000 )  


     PseudoPot. # 1 for Nb read from file:
     /home/fernando/serse/pseudos/Nb.pbe-sp-hgh.UPF
     MD5 check sum: 9806bd744c6e87f68d8a90a6c9e3b9fe
     Pseudo is Norm-conserving, Zval = 13.0
     Generated in analytical, separable form
     Using radial grid of 1227 points,  6 beta functions with: 
                l(1) =   0
                l(2) =   0
                l(3) =   1
                l(4) =   1
                l(5) =   2
                l(6) =   2

     PseudoPot. # 2 for C  read from file:
     /home/fernando/serse/pseudos/C.pbe-hgh.UPF
     MD5 check sum: ca26ff84b356733038fc2f5c468d1892
     Pseudo is Norm-conserving, Zval =  4.0
     Generated in analytical, separable form
     Using radial grid of 1073 points,  1 beta functions with: 
                l(1) =   0

     atomic species   valence    mass     pseudopotential
        Nb            13.00    92.90638     Nb( 1.00)
        C              4.00    12.01100     C ( 1.00)

      2 Sym. Ops. (no inversion) found



   Cartesian axes

     site n.     atom                  positions (alat units)
         1           Nb  tau(   1) = (   0.5000000   0.0000000   0.4000000  )
         2           Nb  tau(   2) = (   0.0000000   0.3568548   0.2000000  )
         3           C   tau(   3) = (   1.2500000   0.0000000   0.0000000  )
         4           C   tau(   4) = (   1.7500000   0.0000000   0.0000000  )
         5           C   tau(   5) = (   1.4000000   0.3500000   0.4000000  )
         6           C   tau(   6) = (   1.6000000   0.3500000   0.4000000  )

     number of k points=     9  Gaussian smearing, width (Ry)=  0.0100
                       cart. coord. in units 2pi/alat
        k(    1) = (   0.0000000   0.0000000   0.0000000), wk =   0.0800000
        k(    2) = (   0.0000000   0.2802260   0.0000000), wk =   0.1600000
        k(    3) = (   0.0000000   0.5604520   0.0000000), wk =   0.1600000
        k(    4) = (   0.2000000   0.0000000   0.0000000), wk =   0.1600000
        k(    5) = (   0.2000000   0.2802260   0.0000000), wk =   0.3200000
        k(    6) = (   0.2000000   0.5604520   0.0000000), wk =   0.3200000
        k(    7) = (   0.4000000   0.0000000   0.0000000), wk =   0.1600000
        k(    8) = (   0.4000000   0.2802260   0.0000000), wk =   0.3200000
        k(    9) = (   0.4000000   0.5604520   0.0000000), wk =   0.3200000

     Dense  grid:   317575 G-vectors     FFT dimensions: (  60,  45, 240)

     Smooth grid:   147699 G-vectors     FFT dimensions: (  48,  36, 192)

     Estimated max dynamical RAM per process >      15.62 MB

     Estimated total dynamical RAM >     374.80 MB

     Initial potential from superposition of free atoms

     starting charge   15.99983, renormalised to   42.00000

     negative rho (up, down):  6.786E-06 0.000E+00
     Starting wfcs are   16 randomized atomic wfcs +    9 random wfcs

     total cpu time spent up to now is        0.7 secs

     Self-consistent Calculation

     iteration #  1     ecut=    60.00 Ry     beta= 0.70
     Davidson diagonalization with overlap
     c_bands:  2 eigenvalues not converged
     ethr =  1.00E-02,  avg # of iterations = 17.9

     total cpu time spent up to now is        2.2 secs

     total energy              =    -161.27143299 Ry
     estimated scf accuracy    <     430.71821284 Ry

     iteration #  2     ecut=    60.00 Ry     beta= 0.70
     Davidson diagonalization with overlap
     ethr =  1.00E-02,  avg # of iterations = 12.0

     negative rho (up, down):  2.962E-06 0.000E+00

     total cpu time spent up to now is        3.3 secs

     total energy              =    -124.79943558 Ry
     estimated scf accuracy    <     389.38723530 Ry

     iteration #  3     ecut=    60.00 Ry     beta= 0.70
     Davidson diagonalization with overlap
     ethr =  1.00E-02,  avg # of iterations = 14.1

     negative rho (up, down):  2.940E-06 0.000E+00

     total cpu time spent up to now is        4.5 secs

     total energy              =    -278.66432186 Ry
     estimated scf accuracy    <     188.93062472 Ry

     iteration #  4     ecut=    60.00 Ry     beta= 0.70
     Davidson diagonalization with overlap
     ethr =  1.00E-02,  avg # of iterations =  9.1

     negative rho (up, down):  2.468E-06 0.000E+00

     total cpu time spent up to now is        5.2 secs

     total energy              =    -281.44134230 Ry
     estimated scf accuracy    <      56.56983001 Ry

     iteration #  5     ecut=    60.00 Ry     beta= 0.70
     Davidson diagonalization with overlap
     ethr =  1.00E-02,  avg # of iterations =  5.2

     negative rho (up, down):  1.916E-06 0.000E+00

     total cpu time spent up to now is        5.6 secs

     total energy              =    -277.97309862 Ry
     estimated scf accuracy    <      41.08702932 Ry

     iteration #  6     ecut=    60.00 Ry     beta= 0.70
     Davidson diagonalization with overlap
     ethr =  1.00E-02,  avg # of iterations =  2.0

     negative rho (up, down):  8.518E-07 0.000E+00

     total cpu time spent up to now is        5.9 secs

     total energy              =    -272.01058244 Ry
     estimated scf accuracy    <      24.49927305 Ry

     iteration #  7     ecut=    60.00 Ry     beta= 0.70
     Davidson diagonalization with overlap
     ethr =  1.00E-02,  avg # of iterations =  5.6

     negative rho (up, down):  7.606E-07 0.000E+00

     total cpu time spent up to now is        6.3 secs

     total energy              =    -273.63070810 Ry
     estimated scf accuracy    <       3.10173488 Ry

     iteration #  8     ecut=    60.00 Ry     beta= 0.70
     Davidson diagonalization with overlap
     ethr =  7.39E-03,  avg # of iterations =  3.2

     negative rho (up, down):  2.731E-08 0.000E+00

     total cpu time spent up to now is        6.6 secs

     total energy              =    -270.90905546 Ry
     estimated scf accuracy    <      10.78566845 Ry

     iteration #  9     ecut=    60.00 Ry     beta= 0.70
     Davidson diagonalization with overlap
     ethr =  7.39E-03,  avg # of iterations =  5.0

     negative rho (up, down):  2.371E-08 0.000E+00

     total cpu time spent up to now is        7.1 secs

     total energy              =    -272.48094757 Ry
     estimated scf accuracy    <       2.42026097 Ry

     iteration # 10     ecut=    60.00 Ry     beta= 0.70
     Davidson diagonalization with overlap
     ethr =  5.76E-03,  avg # of iterations =  1.2

     total cpu time spent up to now is        7.3 secs

     total energy              =    -272.43570728 Ry
     estimated scf accuracy    <       0.88470858 Ry

     iteration # 11     ecut=    60.00 Ry     beta= 0.70
     Davidson diagonalization with overlap
     ethr =  2.11E-03,  avg # of iterations =  2.4

     negative rho (up, down):  1.307E-07 0.000E+00

     total cpu time spent up to now is        7.6 secs

     total energy              =    -272.37976941 Ry
     estimated scf accuracy    <       0.98123066 Ry

     iteration # 12     ecut=    60.00 Ry     beta= 0.70
     Davidson diagonalization with overlap
     ethr =  2.11E-03,  avg # of iterations =  1.7

     negative rho (up, down):  1.255E-06 0.000E+00

     total cpu time spent up to now is        7.9 secs

     total energy              =    -272.35758583 Ry
     estimated scf accuracy    <       0.15296070 Ry

     iteration # 13     ecut=    60.00 Ry     beta= 0.70
     Davidson diagonalization with overlap
     ethr =  3.64E-04,  avg # of iterations =  6.4

     negative rho (up, down):  5.676E-07 0.000E+00

     total cpu time spent up to now is        8.4 secs

     total energy              =    -272.45252849 Ry
     estimated scf accuracy    <       0.63675489 Ry

     iteration # 14     ecut=    60.00 Ry     beta= 0.70
     Davidson diagonalization with overlap
     ethr =  3.64E-04,  avg # of iterations =  1.6

     negative rho (up, down):  1.866E-07 0.000E+00

     total cpu time spent up to now is        8.6 secs

     total energy              =    -272.44105711 Ry
     estimated scf accuracy    <       0.47028587 Ry

     iteration # 15     ecut=    60.00 Ry     beta= 0.70
     Davidson diagonalization with overlap
     ethr =  3.64E-04,  avg # of iterations =  1.0

     total cpu time spent up to now is        8.9 secs

     total energy              =    -272.39402861 Ry
     estimated scf accuracy    <       0.32896438 Ry

     iteration # 16     ecut=    60.00 Ry     beta= 0.70
     Davidson diagonalization with overlap
     ethr =  3.64E-04,  avg # of iterations =  3.0

     negative rho (up, down):  1.506E-08 0.000E+00

     total cpu time spent up to now is        9.2 secs

     total energy              =    -272.41639577 Ry
     estimated scf accuracy    <       0.01227846 Ry

     iteration # 17     ecut=    60.00 Ry     beta= 0.70
     Davidson diagonalization with overlap
     ethr =  2.92E-05,  avg # of iterations =  6.4

     total cpu time spent up to now is        9.7 secs

     total energy              =    -272.41898843 Ry
     estimated scf accuracy    <       0.00838187 Ry

     iteration # 18     ecut=    60.00 Ry     beta= 0.70
     Davidson diagonalization with overlap
     ethr =  2.00E-05,  avg # of iterations =  2.3

     total cpu time spent up to now is       10.0 secs

     total energy              =    -272.42025499 Ry
     estimated scf accuracy    <       0.00181479 Ry

     iteration # 19     ecut=    60.00 Ry     beta= 0.70
     Davidson diagonalization with overlap
     ethr =  4.32E-06,  avg # of iterations =  2.8

     total cpu time spent up to now is       10.3 secs

     total energy              =    -272.42037097 Ry
     estimated scf accuracy    <       0.00015144 Ry

     iteration # 20     ecut=    60.00 Ry     beta= 0.70
     Davidson diagonalization with overlap
     ethr =  3.61E-07,  avg # of iterations =  5.0

     total cpu time spent up to now is       10.6 secs

     total energy              =    -272.42039364 Ry
     estimated scf accuracy    <       0.00003445 Ry

     iteration # 21     ecut=    60.00 Ry     beta= 0.70
     Davidson diagonalization with overlap
     ethr =  8.20E-08,  avg # of iterations =  2.3

     total cpu time spent up to now is       10.9 secs

     total energy              =    -272.42039150 Ry
     estimated scf accuracy    <       0.00002314 Ry

     iteration # 22     ecut=    60.00 Ry     beta= 0.70
     Davidson diagonalization with overlap
     ethr =  5.51E-08,  avg # of iterations =  2.0

     total cpu time spent up to now is       11.2 secs

     total energy              =    -272.42039303 Ry
     estimated scf accuracy    <       0.00000325 Ry

     iteration # 23     ecut=    60.00 Ry     beta= 0.70
     Davidson diagonalization with overlap
     ethr =  7.73E-09,  avg # of iterations =  5.3

     total cpu time spent up to now is       11.6 secs

     total energy              =    -272.42039384 Ry
     estimated scf accuracy    <       0.00000004 Ry

     iteration # 24     ecut=    60.00 Ry     beta= 0.70
     Davidson diagonalization with overlap
     ethr =  9.18E-11,  avg # of iterations =  5.9

     total cpu time spent up to now is       12.1 secs

     total energy              =    -272.42039389 Ry
     estimated scf accuracy    <       0.00000009 Ry

     iteration # 25     ecut=    60.00 Ry     beta= 0.70
     Davidson diagonalization with overlap
     ethr =  9.18E-11,  avg # of iterations =  2.0

     total cpu time spent up to now is       12.4 secs

     total energy              =    -272.42039388 Ry
     estimated scf accuracy    <       0.00000008 Ry

     iteration # 26     ecut=    60.00 Ry     beta= 0.70
     Davidson diagonalization with overlap
     ethr =  9.18E-11,  avg # of iterations =  2.4

     total cpu time spent up to now is       12.7 secs

     End of self-consistent calculation

          k = 0.0000 0.0000 0.0000 ( 18467 PWs)   bands (ev):

   -58.4225 -58.1283 -34.5143 -33.4699 -33.3492 -33.0900 -33.0271 -32.8194
   -20.4949 -11.8488  -8.8898  -8.2051  -7.6728  -7.2043  -5.5825  -5.2248
    -4.3491  -3.3728  -2.9579  -2.3447  -1.6985  -1.2334  -0.7626  -0.2528
     0.9259

          k = 0.0000 0.2802 0.0000 ( 18451 PWs)   bands (ev):

   -58.4190 -58.1263 -34.6649 -33.4364 -33.3419 -33.1553 -32.9983 -32.8463
   -19.5696 -11.5906  -9.0118  -8.9629  -8.7218  -7.2402  -6.6036  -4.8985
    -4.2269  -3.4385  -2.7218  -2.0680  -1.1997  -1.0792  -0.6676   0.3838
     0.4462

          k = 0.0000 0.5605 0.0000 ( 18456 PWs)   bands (ev):

   -58.4133 -58.1231 -34.8950 -33.3734 -33.3312 -33.2424 -32.9686 -32.8982
   -17.4815 -11.0835 -10.4035  -9.9595  -9.6373  -9.1819  -6.8478  -4.5321
    -3.6584  -2.9659  -2.5546  -1.8200  -1.3067  -0.6830  -0.3722   0.7357
     1.2146

          k = 0.2000 0.0000 0.0000 ( 18411 PWs)   bands (ev):

   -58.4214 -58.1293 -34.5124 -33.4548 -33.3518 -33.0922 -33.0202 -32.8411
   -20.4813 -11.6831  -9.4110  -8.0929  -7.7042  -7.1328  -5.4774  -4.6747
    -4.4288  -3.5302  -2.9573  -2.2885  -2.0380  -0.9178  -0.6814  -0.1401
     0.3521

          k = 0.2000 0.2802 0.0000 ( 18455 PWs)   bands (ev):

   -58.4183 -58.1270 -34.6679 -33.4218 -33.3435 -33.1636 -32.9960 -32.8522
   -19.5590 -11.4428  -9.4524  -8.9495  -8.6857  -7.1906  -6.5876  -4.5135
    -4.0014  -3.4444  -2.5572  -2.2713  -1.7506  -0.8684  -0.2888  -0.1731
     0.4229

          k = 0.2000 0.5605 0.0000 ( 18480 PWs)   bands (ev):

   -58.4131 -58.1232 -34.9027 -33.3633 -33.3313 -33.2586 -32.9783 -32.8736
   -17.4706 -10.9747 -10.4200  -9.9802  -9.6744  -9.4201  -6.6957  -4.2243
    -3.5782  -3.0220  -2.2982  -1.8818  -1.4907  -0.7348  -0.5751   0.4225
     0.9847

          k = 0.4000 0.0000 0.0000 ( 18461 PWs)   bands (ev):

   -58.4197 -58.1311 -34.5099 -33.4224 -33.3655 -33.0964 -32.9986 -32.8873
   -20.4623 -11.2315 -10.2625  -7.9649  -7.7560  -7.0369  -5.2039  -4.7084
    -4.0334  -3.4194  -3.0442  -2.1806  -2.0083  -1.3398  -0.6902  -0.0343
     0.4028

          k = 0.4000 0.2802 0.0000 ( 18436 PWs)   bands (ev):

   -58.4171 -58.1282 -34.6723 -33.3904 -33.3542 -33.1766 -32.9906 -32.8629
   -19.5398 -11.0191 -10.2316  -8.9355  -8.6540  -7.1311  -6.5197  -4.0970
    -3.5484  -3.3517  -2.7137  -2.2154  -1.8195  -1.4408  -0.4301   0.1701
     0.4509

          k = 0.4000 0.5605 0.0000 ( 18424 PWs)   bands (ev):

   -58.4129 -58.1234 -34.9149 -33.3447 -33.3329 -33.2826 -32.9860 -32.8427
   -17.4523 -10.6856 -10.4306 -10.1080  -9.8948  -9.6494  -6.4151  -3.7614
    -3.4997  -2.8002  -2.3257  -1.9928  -1.5416  -0.8629  -0.8376   0.1799
     0.8577

     the Fermi energy is    -1.3683 ev

!    total energy              =    -272.42039388 Ry
     estimated scf accuracy    <          5.9E-09 Ry
     smearing contrib. (-TS)   =      -0.00224654 Ry
     internal energy E=F+TS    =    -272.41814734 Ry

     The total energy is F=E-TS. E is the sum of the following terms:
     one-electron contribution =   -1642.10265299 Ry
     hartree contribution      =     818.09030915 Ry
     xc contribution           =     -41.47954880 Ry
     ewald contribution        =     593.07374530 Ry

     convergence has been achieved in  26 iterations

     Forces acting on atoms (cartesian axes, Ry/au):

     atom    1 type  1   force =     0.00000000   -0.15019421   -0.17293089
     atom    2 type  1   force =     0.00000000   -0.00396813   -0.09700533
     atom    3 type  2   force =    -0.01764319   -0.00088212    0.08263866
     atom    4 type  2   force =     0.01764319   -0.00088212    0.08263866
     atom    5 type  2   force =    -2.05662457    0.07796329    0.05232945
     atom    6 type  2   force =     2.05662457    0.07796329    0.05232945

     Total force =     2.924588     Total SCF correction =     0.000093

     BFGS Geometry Optimization
     Energy error            =      0.0E+00 Ry
     Gradient error          =      2.1E+00 Ry/Bohr

     number of scf cycles    =   1
     number of bfgs steps    =   0

     energy             new  =    -272.4203938781 Ry

     new trust radius        =       0.5000000000 bohr
     new conv_thr            =       0.0000000100 Ry


ATOMIC_POSITIONS (alat)
Nb            0.5000000000       -0.0038916824        0.3955191874
Nb            0.0000000000        0.3567520205        0.1974864947
C             1.2495428474       -0.0000228567        0.0021412506
C             1.7504571526       -0.0000228567        0.0021412506
C             1.3467107971        0.3520201070        0.4013559084
C             1.6532892029        0.3520201070        0.4013559084



     Writing output data file /home/fernando/serse/temp/NB.save/
     NEW-OLD atomic charge density approx. for the potential

     negative rho (up, down):  4.332E-06 0.000E+00

     total cpu time spent up to now is       13.5 secs

     Self-consistent Calculation

     iteration #  1     ecut=    60.00 Ry     beta= 0.70
     Davidson diagonalization with overlap
     c_bands:  4 eigenvalues not converged
     c_bands:  2 eigenvalues not converged
     c_bands:  1 eigenvalues not converged
     c_bands:  1 eigenvalues not converged
     c_bands:  2 eigenvalues not converged
     c_bands:  2 eigenvalues not converged
     c_bands:  2 eigenvalues not converged
     c_bands:  2 eigenvalues not converged
     ethr =  1.00E-06,  avg # of iterations = 19.9

     total cpu time spent up to now is       15.1 secs

     total energy              =    -270.46884763 Ry
     estimated scf accuracy    <       3.59082083 Ry

     iteration #  2     ecut=    60.00 Ry     beta= 0.70
     Davidson diagonalization with overlap
     ethr =  8.55E-03,  avg # of iterations =  7.1

     negative rho (up, down):  1.781E-06 0.000E+00

     total cpu time spent up to now is       15.7 secs

     total energy              =    -266.02276252 Ry
     estimated scf accuracy    <      99.68988855 Ry

     iteration #  3     ecut=    60.00 Ry     beta= 0.70
     Davidson diagonalization with overlap
     ethr =  8.55E-03,  avg # of iterations =  6.6

     negative rho (up, down):  1.186E-06 0.000E+00

     total cpu time spent up to now is       16.2 secs

     total energy              =    -272.71960638 Ry
     estimated scf accuracy    <       1.46993084 Ry

     iteration #  4     ecut=    60.00 Ry     beta= 0.70
     Davidson diagonalization with overlap
     ethr =  3.50E-03,  avg # of iterations =  4.6

     negative rho (up, down):  2.762E-07 0.000E+00

     total cpu time spent up to now is       16.6 secs

     total energy              =    -272.94197855 Ry
     estimated scf accuracy    <       0.25295944 Ry

     iteration #  5     ecut=    60.00 Ry     beta= 0.70
     Davidson diagonalization with overlap
     ethr =  6.02E-04,  avg # of iterations =  6.0

     total cpu time spent up to now is       17.0 secs

     total energy              =    -272.99913088 Ry
     estimated scf accuracy    <       0.10394378 Ry

     iteration #  6     ecut=    60.00 Ry     beta= 0.70
     Davidson diagonalization with overlap
     ethr =  2.47E-04,  avg # of iterations =  3.2

     total cpu time spent up to now is       17.3 secs

     total energy              =    -273.01234164 Ry
     estimated scf accuracy    <       0.00531098 Ry

     iteration #  7     ecut=    60.00 Ry     beta= 0.70
     Davidson diagonalization with overlap
     ethr =  1.26E-05,  avg # of iterations =  9.0

     total cpu time spent up to now is       17.9 secs

     total energy              =    -273.01412966 Ry
     estimated scf accuracy    <       0.00368030 Ry

     iteration #  8     ecut=    60.00 Ry     beta= 0.70
     Davidson diagonalization with overlap
     ethr =  8.76E-06,  avg # of iterations =  2.6

     total cpu time spent up to now is       18.2 secs

     total energy              =    -273.01454670 Ry
     estimated scf accuracy    <       0.00206705 Ry

     iteration #  9     ecut=    60.00 Ry     beta= 0.70
     Davidson diagonalization with overlap
     ethr =  4.92E-06,  avg # of iterations =  2.4

     total cpu time spent up to now is       18.5 secs

     total energy              =    -273.01470876 Ry
     estimated scf accuracy    <       0.00017249 Ry

     iteration # 10     ecut=    60.00 Ry     beta= 0.70
     Davidson diagonalization with overlap
     ethr =  4.11E-07,  avg # of iterations =  5.1

     total cpu time spent up to now is       18.9 secs

     total energy              =    -273.01473234 Ry
     estimated scf accuracy    <       0.00003972 Ry

     iteration # 11     ecut=    60.00 Ry     beta= 0.70
     Davidson diagonalization with overlap
     ethr =  9.46E-08,  avg # of iterations =  3.7

     total cpu time spent up to now is       19.2 secs

     total energy              =    -273.01473798 Ry
     estimated scf accuracy    <       0.00000585 Ry

     iteration # 12     ecut=    60.00 Ry     beta= 0.70
     Davidson diagonalization with overlap
     ethr =  1.39E-08,  avg # of iterations =  5.0

     total cpu time spent up to now is       19.6 secs

     total energy              =    -273.01473948 Ry
     estimated scf accuracy    <       0.00000012 Ry

     iteration # 13     ecut=    60.00 Ry     beta= 0.70
     Davidson diagonalization with overlap
     ethr =  2.94E-10,  avg # of iterations =  5.9

     total cpu time spent up to now is       20.1 secs

     total energy              =    -273.01473958 Ry
     estimated scf accuracy    <       0.00000006 Ry

     iteration # 14     ecut=    60.00 Ry     beta= 0.70
     Davidson diagonalization with overlap
     ethr =  1.36E-10,  avg # of iterations =  2.8

     total cpu time spent up to now is       20.4 secs

     End of self-consistent calculation

          k = 0.0000 0.0000 0.0000 ( 18467 PWs)   bands (ev):

   -58.2258 -58.0802 -33.7594 -33.4658 -33.2371 -33.0286 -32.9491 -32.8918
   -17.0198 -11.9234  -9.1482  -8.8408  -7.0597  -6.8359  -6.3309  -5.0336
    -3.5023  -2.9902  -2.9755  -2.5223  -1.8927  -0.8060  -0.1786   0.3012
     0.7773

          k = 0.0000 0.2802 0.0000 ( 18451 PWs)   bands (ev):

   -58.2207 -58.0783 -33.8931 -33.4192 -33.2257 -33.0600 -32.9643 -32.9339
   -16.1521 -11.6622  -9.7068  -9.2427  -7.2352  -6.5293  -5.5360  -5.0651
    -4.3986  -3.2771  -2.7585  -2.6681  -1.6814  -0.4152  -0.1582  -0.0786
     0.9848

          k = 0.0000 0.5605 0.0000 ( 18456 PWs)   bands (ev):

   -58.2124 -58.0753 -34.0985 -33.3160 -33.2115 -33.1366 -33.0293 -32.9599
   -14.2528 -11.2210 -10.4368  -9.4555  -8.0296  -7.1098  -6.0773  -4.6957
    -3.6996  -3.5049  -2.5662  -2.1809  -1.6306  -1.1596  -0.3746  -0.1345
     0.9066

          k = 0.2000 0.0000 0.0000 ( 18411 PWs)   bands (ev):

   -58.2233 -58.0827 -33.7550 -33.4384 -33.2440 -33.0294 -32.9540 -32.9143
   -16.9709 -11.8114  -9.6181  -8.9020  -7.0358  -6.7179  -5.9808  -4.5929
    -3.7898  -3.4331  -2.8051  -2.6453  -1.4209  -0.7375  -0.4770   0.2423
     0.3971

          k = 0.2000 0.2802 0.0000 ( 18455 PWs)   bands (ev):

   -58.2191 -58.0800 -33.9018 -33.3886 -33.2303 -33.0805 -32.9782 -32.9185
   -16.1028 -11.5697  -9.8422  -9.5588  -7.0196  -6.5389  -5.4640  -4.7771
    -4.2610  -3.4347  -2.7124  -2.5173  -1.9418  -0.8276  -0.1458  -0.0301
     0.7408

          k = 0.2000 0.5605 0.0000 ( 18480 PWs)   bands (ev):

   -58.2122 -58.0755 -34.1172 -33.2938 -33.2130 -33.1812 -33.0079 -32.9372
   -14.1966 -11.1414 -10.5887  -9.7260  -7.7302  -7.0745  -6.1958  -4.5517
    -3.4953  -3.3338  -2.4957  -2.2627  -1.9034  -1.3248  -0.8631  -0.1804
     0.9463

          k = 0.4000 0.0000 0.0000 ( 18461 PWs)   bands (ev):

   -58.2191 -58.0870 -33.7482 -33.3741 -33.2787 -33.0146 -32.9661 -32.9618
   -16.8917 -11.5156 -10.3748  -8.9750  -7.0379  -6.4726  -5.2772  -4.5001
    -4.2370  -3.5961  -2.4165  -2.1358  -1.6745  -1.6010  -0.3443   0.2762
     0.5939

          k = 0.4000 0.2802 0.0000 ( 18436 PWs)   bands (ev):

   -58.2163 -58.0828 -33.9144 -33.3225 -33.2591 -33.1081 -32.9855 -32.9108
   -16.0196 -11.3152 -10.4043  -9.7342  -6.8205  -6.2781  -5.2409  -4.8766
    -4.3953  -3.1168  -2.4073  -2.1645  -2.0447  -1.6493  -0.7071   0.3042
     0.7577

          k = 0.4000 0.5605 0.0000 ( 18424 PWs)   bands (ev):

   -58.2117 -58.0759 -34.1451 -33.2630 -33.2271 -33.2110 -32.9991 -32.9000
   -14.0972 -11.0362 -10.6838 -10.2041  -7.2941  -7.0675  -6.2889  -4.2154
    -3.3567  -3.2783  -2.6955  -2.2594  -1.7532  -1.6339  -1.0300  -0.3704
     0.6389

     the Fermi energy is    -1.6373 ev

!    total energy              =    -273.01473958 Ry
     estimated scf accuracy    <          5.9E-09 Ry
     smearing contrib. (-TS)   =      -0.00400385 Ry
     internal energy E=F+TS    =    -273.01073574 Ry

     The total energy is F=E-TS. E is the sum of the following terms:
     one-electron contribution =   -1634.98284713 Ry
     hartree contribution      =     814.64736346 Ry
     xc contribution           =     -40.92640994 Ry
     ewald contribution        =     588.25115787 Ry

     convergence has been achieved in  14 iterations

     Forces acting on atoms (cartesian axes, Ry/au):

     atom    1 type  1   force =     0.00000000   -0.00989459   -0.16959785
     atom    2 type  1   force =     0.00000000   -0.00090269   -0.16598197
     atom    3 type  2   force =    -0.02071904   -0.00049115    0.06828409
     atom    4 type  2   force =     0.02071904   -0.00049115    0.06828409
     atom    5 type  2   force =     0.01656016    0.00588979    0.09950582
     atom    6 type  2   force =    -0.01656016    0.00588979    0.09950582

     Total force =     0.294987     Total SCF correction =     0.000109
     Energy error            =      5.9E-01 Ry
     Gradient error          =      1.7E-01 Ry/Bohr

     number of scf cycles    =   2
     number of bfgs steps    =   1

     energy             old  =    -272.4203938781 Ry
     energy             new  =    -273.0147395849 Ry

     CASE: energy            _new < energy            _old

     new trust radius        =       0.1717463842 bohr
     new conv_thr            =       0.0000000100 Ry


ATOMIC_POSITIONS (alat)
Nb            0.5000000000       -0.0051076454        0.3772360547
Nb            0.0000000000        0.3566514603        0.1796701424
C             1.2473129877       -0.0000762107        0.0095163371
C             1.7526870123       -0.0000762107        0.0095163371
C             1.3462864687        0.3527317226        0.4120305644
C             1.6537135313        0.3527317226        0.4120305644



     Writing output data file /home/fernando/serse/temp/NB.save/
     NEW-OLD atomic charge density approx. for the potential

     total cpu time spent up to now is       20.9 secs

     Self-consistent Calculation

     iteration #  1     ecut=    60.00 Ry     beta= 0.70
     Davidson diagonalization with overlap
     c_bands:  4 eigenvalues not converged
     c_bands:  1 eigenvalues not converged
     ethr =  1.00E-06,  avg # of iterations = 29.0

     total cpu time spent up to now is       23.1 secs

     total energy              =    -238.65939673 Ry
     estimated scf accuracy    <      46.35607578 Ry

     iteration #  2     ecut=    60.00 Ry     beta= 0.70
     Davidson diagonalization with overlap
     ethr =  1.00E-02,  avg # of iterations = 13.9

     negative rho (up, down):  8.216E-07 0.000E+00

     total cpu time spent up to now is       24.1 secs

     total energy              =    -245.52330758 Ry
     estimated scf accuracy    <     360.27526393 Ry

     iteration #  3     ecut=    60.00 Ry     beta= 0.70
     Davidson diagonalization with overlap
     ethr =  1.00E-02,  avg # of iterations =  8.8

     negative rho (up, down):  1.143E-06 0.000E+00

     total cpu time spent up to now is       24.8 secs

     total energy              =    -272.53973163 Ry
     estimated scf accuracy    <      46.87058299 Ry

     iteration #  4     ecut=    60.00 Ry     beta= 0.70
     Davidson diagonalization with overlap
     ethr =  1.00E-02,  avg # of iterations =  4.4

     negative rho (up, down):  1.247E-06 0.000E+00

     total cpu time spent up to now is       25.2 secs

     total energy              =    -273.75490310 Ry
     estimated scf accuracy    <      21.76585831 Ry

     iteration #  5     ecut=    60.00 Ry     beta= 0.70
     Davidson diagonalization with overlap
     ethr =  1.00E-02,  avg # of iterations =  2.2

     negative rho (up, down):  3.146E-07 0.000E+00

     total cpu time spent up to now is       25.5 secs

     total energy              =    -272.20596314 Ry
     estimated scf accuracy    <      11.44451507 Ry

     iteration #  6     ecut=    60.00 Ry     beta= 0.70
     Davidson diagonalization with overlap
     ethr =  1.00E-02,  avg # of iterations =  4.7

     total cpu time spent up to now is       25.9 secs

     total energy              =    -273.04366571 Ry
     estimated scf accuracy    <       0.59598630 Ry

     iteration #  7     ecut=    60.00 Ry     beta= 0.70
     Davidson diagonalization with overlap
     ethr =  1.42E-03,  avg # of iterations =  5.8

     total cpu time spent up to now is       26.3 secs

     total energy              =    -273.13816931 Ry
     estimated scf accuracy    <       0.20882241 Ry

     iteration #  8     ecut=    60.00 Ry     beta= 0.70
     Davidson diagonalization with overlap
     ethr =  4.97E-04,  avg # of iterations =  3.8

     total cpu time spent up to now is       26.6 secs

     total energy              =    -273.09440868 Ry
     estimated scf accuracy    <       0.75211813 Ry

     iteration #  9     ecut=    60.00 Ry     beta= 0.70
     Davidson diagonalization with overlap
     ethr =  4.97E-04,  avg # of iterations =  1.8

     total cpu time spent up to now is       26.9 secs

     total energy              =    -273.08612268 Ry
     estimated scf accuracy    <       0.16009747 Ry

     iteration # 10     ecut=    60.00 Ry     beta= 0.70
     Davidson diagonalization with overlap
     ethr =  3.81E-04,  avg # of iterations =  5.0

     total cpu time spent up to now is       27.2 secs

     total energy              =    -273.11113904 Ry
     estimated scf accuracy    <       0.03041634 Ry

     iteration # 11     ecut=    60.00 Ry     beta= 0.70
     Davidson diagonalization with overlap
     ethr =  7.24E-05,  avg # of iterations =  6.2

     total cpu time spent up to now is       27.6 secs

     total energy              =    -273.11268094 Ry
     estimated scf accuracy    <       0.00582423 Ry

     iteration # 12     ecut=    60.00 Ry     beta= 0.70
     Davidson diagonalization with overlap
     ethr =  1.39E-05,  avg # of iterations =  5.1

     total cpu time spent up to now is       28.0 secs

     total energy              =    -273.11371673 Ry
     estimated scf accuracy    <       0.00016636 Ry

     iteration # 13     ecut=    60.00 Ry     beta= 0.70
     Davidson diagonalization with overlap
     ethr =  3.96E-07,  avg # of iterations =  6.6

     total cpu time spent up to now is       28.5 secs

     total energy              =    -273.11385363 Ry
     estimated scf accuracy    <       0.00011364 Ry

     iteration # 14     ecut=    60.00 Ry     beta= 0.70
     Davidson diagonalization with overlap
     ethr =  2.71E-07,  avg # of iterations =  1.6

     total cpu time spent up to now is       28.8 secs

     total energy              =    -273.11385591 Ry
     estimated scf accuracy    <       0.00002522 Ry

     iteration # 15     ecut=    60.00 Ry     beta= 0.70
     Davidson diagonalization with overlap
     ethr =  6.00E-08,  avg # of iterations =  5.0

     total cpu time spent up to now is       29.2 secs

     total energy              =    -273.11386270 Ry
     estimated scf accuracy    <       0.00000837 Ry

     iteration # 16     ecut=    60.00 Ry     beta= 0.70
     Davidson diagonalization with overlap
     ethr =  1.99E-08,  avg # of iterations =  2.0

     total cpu time spent up to now is       29.4 secs

     total energy              =    -273.11386179 Ry
     estimated scf accuracy    <       0.00000825 Ry

     iteration # 17     ecut=    60.00 Ry     beta= 0.70
     Davidson diagonalization with overlap
     ethr =  1.96E-08,  avg # of iterations =  2.1

     total cpu time spent up to now is       29.7 secs

     total energy              =    -273.11386205 Ry
     estimated scf accuracy    <       0.00000127 Ry

     iteration # 18     ecut=    60.00 Ry     beta= 0.70
     Davidson diagonalization with overlap
     ethr =  3.02E-09,  avg # of iterations =  5.2

     total cpu time spent up to now is       30.1 secs

     total energy              =    -273.11386238 Ry
     estimated scf accuracy    <       0.00000045 Ry

     iteration # 19     ecut=    60.00 Ry     beta= 0.70
     Davidson diagonalization with overlap
     ethr =  1.07E-09,  avg # of iterations =  1.3

     total cpu time spent up to now is       30.4 secs

     total energy              =    -273.11386235 Ry
     estimated scf accuracy    <       0.00000019 Ry

     iteration # 20     ecut=    60.00 Ry     beta= 0.70
     Davidson diagonalization with overlap
     ethr =  4.50E-10,  avg # of iterations =  4.0

     total cpu time spent up to now is       30.7 secs

     End of self-consistent calculation

          k = 0.0000 0.0000 0.0000 ( 18467 PWs)   bands (ev):

   -58.3802 -57.8124 -33.5051 -33.4752 -33.3753 -33.0775 -32.7994 -32.7205
   -16.7993 -12.0697  -9.2749  -8.8671  -6.8663  -6.6015  -6.2479  -5.3597
    -3.6007  -3.3909  -3.0825  -2.3587  -2.3052  -0.7615   0.2625   0.3103
     0.9660

          k = 0.0000 0.2802 0.0000 ( 18451 PWs)   bands (ev):

   -58.3769 -57.8085 -33.6131 -33.4713 -33.3541 -33.1497 -32.7832 -32.7485
   -15.9492 -11.7825  -9.6480  -9.4515  -7.0408  -6.4448  -5.4036  -5.3778
    -4.3192  -3.3722  -2.8208  -2.7861  -1.8473  -0.5203  -0.0772   0.3667
     1.2235

          k = 0.0000 0.5605 0.0000 ( 18456 PWs)   bands (ev):

   -58.3716 -57.8022 -33.8140 -33.4096 -33.3397 -33.2549 -32.8004 -32.7613
   -14.1178 -11.2913 -10.3674  -9.7367  -7.8967  -6.8944  -5.8440  -4.8586
    -3.6507  -3.6496  -2.5745  -2.1017  -1.8352  -0.7996  -0.2807  -0.0460
     0.8129

          k = 0.2000 0.0000 0.0000 ( 18411 PWs)   bands (ev):

   -58.3795 -57.8130 -33.4872 -33.4661 -33.3781 -33.0866 -32.8009 -32.7372
   -16.7583 -11.9593  -9.7096  -8.8936  -6.8860  -6.4794  -5.9212  -4.9430
    -3.9133  -3.3743  -3.2328  -2.5747  -1.9989  -0.7188  -0.0338   0.3411
     0.7681

          k = 0.2000 0.2802 0.0000 ( 18455 PWs)   bands (ev):

   -58.3765 -57.8089 -33.6379 -33.4339 -33.3509 -33.1634 -32.7829 -32.7528
   -15.9098 -11.6862  -9.8447  -9.6455  -6.8868  -6.4165  -5.4184  -4.9587
    -4.2556  -3.5654  -2.7830  -2.4362  -2.1906  -0.8240  -0.2463   0.0752
     1.2701

          k = 0.2000 0.5605 0.0000 ( 18480 PWs)   bands (ev):

   -58.3716 -57.8022 -33.8454 -33.3850 -33.3294 -33.2733 -32.7868 -32.7584
   -14.0794 -11.2125 -10.4881  -9.9652  -7.6307  -6.8435  -5.9192  -4.6689
    -3.6191  -3.4847  -2.6515  -2.1392  -1.9663  -1.1548  -0.6898  -0.0719
     0.9060

          k = 0.4000 0.0000 0.0000 ( 18461 PWs)   bands (ev):

   -58.3786 -57.8141 -33.4567 -33.4441 -33.3911 -33.1029 -32.7997 -32.7697
   -16.6931 -11.6842 -10.3996  -8.9334  -6.9267  -6.2153  -5.3153  -4.6827
    -4.2120  -3.6862  -2.8433  -2.2930  -2.0926  -1.5493  -0.5220   0.6402
     1.1302

          k = 0.4000 0.2802 0.0000 ( 18436 PWs)   bands (ev):

   -58.3758 -57.8096 -33.6637 -33.3908 -33.3418 -33.1851 -32.7781 -32.7646
   -15.8438 -11.4274 -10.4629  -9.6899  -6.7219  -6.2025  -5.1469  -4.8051
    -4.5212  -3.2428  -2.6288  -2.3755  -2.0316  -1.6263  -0.9430   0.4288
     1.0213

          k = 0.4000 0.5605 0.0000 ( 18424 PWs)   bands (ev):

   -58.3714 -57.8023 -33.8880 -33.3670 -33.3001 -33.2980 -32.7741 -32.7462
   -14.0128 -11.0042 -10.6909 -10.3478  -7.1962  -6.7785  -6.0608  -4.2809
    -3.5251  -3.3660  -2.8512  -2.4593  -1.6877  -1.5148  -1.1859  -0.0851
     0.8172

     the Fermi energy is    -1.6667 ev

!    total energy              =    -273.11386239 Ry
     estimated scf accuracy    <          3.9E-09 Ry
     smearing contrib. (-TS)   =      -0.00236576 Ry
     internal energy E=F+TS    =    -273.11149663 Ry

     The total energy is F=E-TS. E is the sum of the following terms:
     one-electron contribution =   -1640.48095511 Ry
     hartree contribution      =     817.44808153 Ry
     xc contribution           =     -40.98065407 Ry
     ewald contribution        =     590.90203102 Ry

     convergence has been achieved in  20 iterations

     Forces acting on atoms (cartesian axes, Ry/au):

     atom    1 type  1   force =     0.00000000    0.01461445   -0.24986658
     atom    2 type  1   force =     0.00000000   -0.00263994   -0.13527356
     atom    3 type  2   force =    -0.03199222   -0.00061405    0.05487059
     atom    4 type  2   force =     0.03199222   -0.00061405    0.05487059
     atom    5 type  2   force =     0.01537365   -0.00537321    0.13769948
     atom    6 type  2   force =    -0.01537365   -0.00537321    0.13769948

     Total force =     0.357036     Total SCF correction =     0.000071
     Energy error            =      9.9E-02 Ry
     Gradient error          =      2.5E-01 Ry/Bohr

     number of scf cycles    =   3
     number of bfgs steps    =   2

     energy             old  =    -273.0147395849 Ry
     energy             new  =    -273.1138623856 Ry

     CASE: energy            _new < energy            _old


     WARNING: bfgs curvature condition failed, Theta= 0.686
     uphill step: resetting bfgs history

     new trust radius        =       0.1889210226 bohr
     new conv_thr            =       0.0000000100 Ry


ATOMIC_POSITIONS (alat)
Nb            0.5000000000       -0.0039307593        0.3571145671
Nb            0.0000000000        0.3564388686        0.1687767072
C             1.2447366882       -0.0001256593        0.0139350070
C             1.7552633118       -0.0001256593        0.0139350070
C             1.3475244920        0.3522990239        0.4231193559
C             1.6524755080        0.3522990239        0.4231193559



     Writing output data file /home/fernando/serse/temp/NB.save/
     NEW-OLD atomic charge density approx. for the potential

     total cpu time spent up to now is       31.2 secs

     Self-consistent Calculation

     iteration #  1     ecut=    60.00 Ry     beta= 0.70
     Davidson diagonalization with overlap
     c_bands:  5 eigenvalues not converged
     c_bands:  4 eigenvalues not converged
     ethr =  1.00E-06,  avg # of iterations = 27.0

     total cpu time spent up to now is       33.4 secs

     total energy              =    -246.87717218 Ry
     estimated scf accuracy    <      35.53348828 Ry

     iteration #  2     ecut=    60.00 Ry     beta= 0.70
     Davidson diagonalization with overlap
     ethr =  1.00E-02,  avg # of iterations = 11.3

     negative rho (up, down):  6.824E-07 0.000E+00

     total cpu time spent up to now is       34.3 secs

     total energy              =    -247.49213476 Ry
     estimated scf accuracy    <     323.66136739 Ry

     iteration #  3     ecut=    60.00 Ry     beta= 0.70
     Davidson diagonalization with overlap
     ethr =  1.00E-02,  avg # of iterations =  7.7

     negative rho (up, down):  9.950E-07 0.000E+00

     total cpu time spent up to now is       35.0 secs

     total energy              =    -272.63557838 Ry
     estimated scf accuracy    <      32.49298898 Ry

     iteration #  4     ecut=    60.00 Ry     beta= 0.70
     Davidson diagonalization with overlap
     ethr =  1.00E-02,  avg # of iterations =  4.3

     negative rho (up, down):  7.243E-07 0.000E+00

     total cpu time spent up to now is       35.4 secs

     total energy              =    -273.07408062 Ry
     estimated scf accuracy    <      10.77907305 Ry

     iteration #  5     ecut=    60.00 Ry     beta= 0.70
     Davidson diagonalization with overlap
     ethr =  1.00E-02,  avg # of iterations =  2.3

     negative rho (up, down):  7.551E-08 0.000E+00

     total cpu time spent up to now is       35.7 secs

     total energy              =    -272.61224713 Ry
     estimated scf accuracy    <       4.28799377 Ry

     iteration #  6     ecut=    60.00 Ry     beta= 0.70
     Davidson diagonalization with overlap
     ethr =  1.00E-02,  avg # of iterations =  4.1

     total cpu time spent up to now is       36.0 secs

     total energy              =    -273.10864504 Ry
     estimated scf accuracy    <       0.26382580 Ry

     iteration #  7     ecut=    60.00 Ry     beta= 0.70
     Davidson diagonalization with overlap
     ethr =  6.28E-04,  avg # of iterations =  7.1

     total cpu time spent up to now is       36.5 secs

     total energy              =    -273.20395355 Ry
     estimated scf accuracy    <       0.15381456 Ry

     iteration #  8     ecut=    60.00 Ry     beta= 0.70
     Davidson diagonalization with overlap
     ethr =  3.66E-04,  avg # of iterations =  2.3

     total cpu time spent up to now is       36.8 secs

     total energy              =    -273.21391820 Ry
     estimated scf accuracy    <       0.06984890 Ry

     iteration #  9     ecut=    60.00 Ry     beta= 0.70
     Davidson diagonalization with overlap
     ethr =  1.66E-04,  avg # of iterations =  5.6

     total cpu time spent up to now is       37.2 secs

     total energy              =    -273.17109290 Ry
     estimated scf accuracy    <       0.57002692 Ry

     iteration # 10     ecut=    60.00 Ry     beta= 0.70
     Davidson diagonalization with overlap
     ethr =  1.66E-04,  avg # of iterations =  4.4

     total cpu time spent up to now is       37.6 secs

     total energy              =    -273.20225370 Ry
     estimated scf accuracy    <       0.03213325 Ry

     iteration # 11     ecut=    60.00 Ry     beta= 0.70
     Davidson diagonalization with overlap
     ethr =  7.65E-05,  avg # of iterations =  2.3

     total cpu time spent up to now is       37.9 secs

     total energy              =    -273.20249690 Ry
     estimated scf accuracy    <       0.01157645 Ry

     iteration # 12     ecut=    60.00 Ry     beta= 0.70
     Davidson diagonalization with overlap
     ethr =  2.76E-05,  avg # of iterations =  5.7

     total cpu time spent up to now is       38.3 secs

     total energy              =    -273.20433632 Ry
     estimated scf accuracy    <       0.00101587 Ry

     iteration # 13     ecut=    60.00 Ry     beta= 0.70
     Davidson diagonalization with overlap
     ethr =  2.42E-06,  avg # of iterations =  6.9

     total cpu time spent up to now is       38.7 secs

     total energy              =    -273.20451276 Ry
     estimated scf accuracy    <       0.00014088 Ry

     iteration # 14     ecut=    60.00 Ry     beta= 0.70
     Davidson diagonalization with overlap
     ethr =  3.35E-07,  avg # of iterations =  4.1

     total cpu time spent up to now is       39.1 secs

     total energy              =    -273.20454284 Ry
     estimated scf accuracy    <       0.00006767 Ry

     iteration # 15     ecut=    60.00 Ry     beta= 0.70
     Davidson diagonalization with overlap
     ethr =  1.61E-07,  avg # of iterations =  1.9

     total cpu time spent up to now is       39.4 secs

     total energy              =    -273.20453627 Ry
     estimated scf accuracy    <       0.00004753 Ry

     iteration # 16     ecut=    60.00 Ry     beta= 0.70
     Davidson diagonalization with overlap
     ethr =  1.13E-07,  avg # of iterations =  2.1

     total cpu time spent up to now is       39.7 secs

     total energy              =    -273.20454021 Ry
     estimated scf accuracy    <       0.00000224 Ry

     iteration # 17     ecut=    60.00 Ry     beta= 0.70
     Davidson diagonalization with overlap
     ethr =  5.34E-09,  avg # of iterations =  5.3

     total cpu time spent up to now is       40.1 secs

     total energy              =    -273.20454138 Ry
     estimated scf accuracy    <       0.00000099 Ry

     iteration # 18     ecut=    60.00 Ry     beta= 0.70
     Davidson diagonalization with overlap
     ethr =  2.36E-09,  avg # of iterations =  1.3

     total cpu time spent up to now is       40.4 secs

     total energy              =    -273.20454132 Ry
     estimated scf accuracy    <       0.00000045 Ry

     iteration # 19     ecut=    60.00 Ry     beta= 0.70
     Davidson diagonalization with overlap
     ethr =  1.07E-09,  avg # of iterations =  2.6

     total cpu time spent up to now is       40.7 secs

     total energy              =    -273.20454135 Ry
     estimated scf accuracy    <       0.00000004 Ry

     iteration # 20     ecut=    60.00 Ry     beta= 0.70
     Davidson diagonalization with overlap
     ethr =  9.54E-11,  avg # of iterations =  5.0

     total cpu time spent up to now is       41.1 secs

     End of self-consistent calculation

          k = 0.0000 0.0000 0.0000 ( 18467 PWs)   bands (ev):

   -58.5245 -57.7229 -33.6024 -33.5018 -33.3919 -33.1775 -32.7693 -32.6617
   -16.8094 -12.1935  -9.4396  -8.9201  -6.8118  -6.4386  -6.2912  -5.7884
    -4.1538  -3.6900  -3.1795  -2.5815  -2.5404  -0.5025   0.2787   0.3697
     1.2425

          k = 0.0000 0.2802 0.0000 ( 18451 PWs)   bands (ev):

   -58.5213 -57.7187 -33.5720 -33.5529 -33.4359 -33.2717 -32.7550 -32.6850
   -16.0165 -11.8864  -9.7082  -9.5671  -7.1250  -6.4930  -5.6075  -5.4000
    -4.4613  -3.5623  -3.0031  -2.9207  -1.8620  -0.8212  -0.0234   0.5239
     1.0849

          k = 0.0000 0.5605 0.0000 ( 18456 PWs)   bands (ev):

   -58.5162 -57.7121 -33.7085 -33.5186 -33.4460 -33.4002 -32.7342 -32.7265
   -14.3918 -11.3525 -10.3246  -9.9743  -7.8903  -6.7131  -5.7585  -4.9723
    -3.8654  -3.7592  -2.7197  -2.4963  -1.6842  -0.6085  -0.2642   0.0627
     0.5309

          k = 0.2000 0.0000 0.0000 ( 18411 PWs)   bands (ev):

   -58.5241 -57.7234 -33.5861 -33.5032 -33.3740 -33.1958 -32.7677 -32.6810
   -16.7744 -12.0884  -9.8089  -8.9652  -6.8279  -6.3014  -6.0585  -5.3733
    -4.0464  -3.9968  -3.4453  -2.5443  -2.4008  -0.7995   0.2672   0.3362
     1.0539

          k = 0.2000 0.2802 0.0000 ( 18455 PWs)   bands (ev):

   -58.5210 -57.7191 -33.6127 -33.5206 -33.4084 -33.2874 -32.7537 -32.6915
   -15.9852 -11.7916  -9.9596  -9.6665  -6.9841  -6.4695  -5.4607  -5.1651
    -4.3782  -3.7579  -3.0298  -2.5485  -2.1815  -0.9306  -0.4841   0.2361
     1.1787

          k = 0.2000 0.5605 0.0000 ( 18480 PWs)   bands (ev):

   -58.5162 -57.7121 -33.7599 -33.4991 -33.4211 -33.4041 -32.7412 -32.7066
   -14.3676 -11.2778 -10.4332 -10.1760  -7.6537  -6.6273  -5.7762  -4.7891
    -3.8169  -3.7491  -2.8447  -2.4781  -1.8010  -1.0692  -0.6822   0.1830
     0.6769

          k = 0.4000 0.0000 0.0000 ( 18461 PWs)   bands (ev):

   -58.5233 -57.7242 -33.5536 -33.5119 -33.3328 -33.2389 -32.7581 -32.7210
   -16.7194 -11.8440 -10.4056  -9.0278  -6.8564  -5.9829  -5.6378  -4.9429
    -4.3151  -3.8385  -3.7619  -2.5431  -2.0971  -1.5161  -0.7733   0.6294
     1.7802

          k = 0.4000 0.2802 0.0000 ( 18436 PWs)   bands (ev):

   -58.5205 -57.7196 -33.6381 -33.5078 -33.3584 -33.3183 -32.7492 -32.7050
   -15.9329 -11.5516 -10.5070  -9.7170  -6.7635  -6.3878  -5.1333  -4.9619
    -4.4959  -3.4083  -3.2733  -2.4965  -2.0522  -1.5341  -1.1945   0.5754
     1.0964

          k = 0.4000 0.5605 0.0000 ( 18424 PWs)   bands (ev):

   -58.5161 -57.7122 -33.8176 -33.4912 -33.4395 -33.3511 -32.7438 -32.6835
   -14.3260 -11.0585 -10.7001 -10.4585  -7.2835  -6.4758  -5.8639  -4.4108
    -3.7954  -3.5704  -3.1167  -2.7206  -1.6817  -1.4389  -1.2922   0.1434
     0.9240

     the Fermi energy is    -1.6073 ev

!    total energy              =    -273.20454136 Ry
     estimated scf accuracy    <          5.9E-09 Ry
     smearing contrib. (-TS)   =      -0.00229314 Ry
     internal energy E=F+TS    =    -273.20224822 Ry

     The total energy is F=E-TS. E is the sum of the following terms:
     one-electron contribution =   -1644.73453431 Ry
     hartree contribution      =     819.47391380 Ry
     xc contribution           =     -41.01048364 Ry
     ewald contribution        =     593.06885592 Ry

     convergence has been achieved in  20 iterations

     Forces acting on atoms (cartesian axes, Ry/au):

     atom    1 type  1   force =     0.00000000   -0.00518213   -0.22283654
     atom    2 type  1   force =     0.00000000   -0.00317695   -0.09155697
     atom    3 type  2   force =    -0.04282655   -0.00077670    0.03075775
     atom    4 type  2   force =     0.04282655   -0.00077670    0.03075775
     atom    5 type  2   force =     0.01714229    0.00495624    0.12643901
     atom    6 type  2   force =    -0.01714229    0.00495624    0.12643901

     Total force =     0.310238     Total SCF correction =     0.000108
     Energy error            =      9.1E-02 Ry
     Gradient error          =      2.2E-01 Ry/Bohr

     number of scf cycles    =   4
     number of bfgs steps    =   3

     energy             old  =    -273.1138623856 Ry
     energy             new  =    -273.2045413628 Ry

     CASE: energy            _new < energy            _old


     WARNING: bfgs curvature condition failed, Theta= 0.985
     new trust radius        =       0.2833815339 bohr
     new conv_thr            =       0.0000000100 Ry


ATOMIC_POSITIONS (alat)
Nb            0.5000000000       -0.0048557977        0.3268949082
Nb            0.0000000000        0.3559979939        0.1567152163
C             1.2387543942       -0.0002337860        0.0178843748
C             1.7612456058       -0.0002337860        0.0178843748
C             1.3498910940        0.3530901072        0.4403105630
C             1.6501089060        0.3530901072        0.4403105630



     Writing output data file /home/fernando/serse/temp/NB.save/
     NEW-OLD atomic charge density approx. for the potential

     negative rho (up, down):  1.185E-08 0.000E+00

     total cpu time spent up to now is       42.2 secs

     Self-consistent Calculation

     iteration #  1     ecut=    60.00 Ry     beta= 0.70
     Davidson diagonalization with overlap
     ethr =  1.00E-06,  avg # of iterations = 32.7

     total cpu time spent up to now is       44.6 secs

     total energy              =    -226.41307777 Ry
     estimated scf accuracy    <      64.01152946 Ry

     iteration #  2     ecut=    60.00 Ry     beta= 0.70
     Davidson diagonalization with overlap
     ethr =  1.00E-02,  avg # of iterations = 14.8

     negative rho (up, down):  1.328E-06 0.000E+00

     total cpu time spent up to now is       45.8 secs

     total energy              =    -239.49761349 Ry
     estimated scf accuracy    <     456.80056128 Ry

     iteration #  3     ecut=    60.00 Ry     beta= 0.70
     Davidson diagonalization with overlap
     ethr =  1.00E-02,  avg # of iterations = 10.1

     negative rho (up, down):  1.665E-06 0.000E+00

     total cpu time spent up to now is       46.6 secs

     total energy              =    -273.07085635 Ry
     estimated scf accuracy    <      52.89283430 Ry

     iteration #  4     ecut=    60.00 Ry     beta= 0.70
     Davidson diagonalization with overlap
     ethr =  1.00E-02,  avg # of iterations =  4.8

     negative rho (up, down):  1.251E-06 0.000E+00

     total cpu time spent up to now is       47.0 secs

     total energy              =    -273.18165046 Ry
     estimated scf accuracy    <      14.68295003 Ry

     iteration #  5     ecut=    60.00 Ry     beta= 0.70
     Davidson diagonalization with overlap
     ethr =  1.00E-02,  avg # of iterations =  4.2

     negative rho (up, down):  3.037E-07 0.000E+00

     total cpu time spent up to now is       47.3 secs

     total energy              =    -272.35756386 Ry
     estimated scf accuracy    <       7.81830236 Ry

     iteration #  6     ecut=    60.00 Ry     beta= 0.70
     Davidson diagonalization with overlap
     ethr =  1.00E-02,  avg # of iterations =  5.1

     negative rho (up, down):  4.064E-08 0.000E+00

     total cpu time spent up to now is       47.7 secs

     total energy              =    -273.23420999 Ry
     estimated scf accuracy    <       0.35148474 Ry

     iteration #  7     ecut=    60.00 Ry     beta= 0.70
     Davidson diagonalization with overlap
     ethr =  8.37E-04,  avg # of iterations =  4.8

     total cpu time spent up to now is       48.1 secs

     total energy              =    -273.35233097 Ry
     estimated scf accuracy    <       0.44931159 Ry

     iteration #  8     ecut=    60.00 Ry     beta= 0.70
     Davidson diagonalization with overlap
     ethr =  8.37E-04,  avg # of iterations =  1.6

     total cpu time spent up to now is       48.4 secs

     total energy              =    -273.20921260 Ry
     estimated scf accuracy    <       0.69808567 Ry

     iteration #  9     ecut=    60.00 Ry     beta= 0.70
     Davidson diagonalization with overlap
     ethr =  8.37E-04,  avg # of iterations =  3.8

     total cpu time spent up to now is       48.7 secs

     total energy              =    -273.29847916 Ry
     estimated scf accuracy    <       0.04273192 Ry

     iteration # 10     ecut=    60.00 Ry     beta= 0.70
     Davidson diagonalization with overlap
     ethr =  1.02E-04,  avg # of iterations =  8.1

     total cpu time spent up to now is       49.1 secs

     total energy              =    -273.29812678 Ry
     estimated scf accuracy    <       0.02046898 Ry

     iteration # 11     ecut=    60.00 Ry     beta= 0.70
     Davidson diagonalization with overlap
     ethr =  4.87E-05,  avg # of iterations =  3.0

     total cpu time spent up to now is       49.5 secs

     total energy              =    -273.30099490 Ry
     estimated scf accuracy    <       0.01198264 Ry

     iteration # 12     ecut=    60.00 Ry     beta= 0.70
     Davidson diagonalization with overlap
     ethr =  2.85E-05,  avg # of iterations =  2.3

     total cpu time spent up to now is       49.8 secs

     total energy              =    -273.30284944 Ry
     estimated scf accuracy    <       0.00158254 Ry

     iteration # 13     ecut=    60.00 Ry     beta= 0.70
     Davidson diagonalization with overlap
     ethr =  3.77E-06,  avg # of iterations =  8.3

     total cpu time spent up to now is       50.2 secs

     total energy              =    -273.30315851 Ry
     estimated scf accuracy    <       0.00003781 Ry

     iteration # 14     ecut=    60.00 Ry     beta= 0.70
     Davidson diagonalization with overlap
     ethr =  9.00E-08,  avg # of iterations =  7.0

     total cpu time spent up to now is       50.6 secs

     total energy              =    -273.30318671 Ry
     estimated scf accuracy    <       0.00002222 Ry

     iteration # 15     ecut=    60.00 Ry     beta= 0.70
     Davidson diagonalization with overlap
     ethr =  5.29E-08,  avg # of iterations =  1.0

     total cpu time spent up to now is       50.9 secs

     total energy              =    -273.30318518 Ry
     estimated scf accuracy    <       0.00001083 Ry

     iteration # 16     ecut=    60.00 Ry     beta= 0.70
     Davidson diagonalization with overlap
     ethr =  2.58E-08,  avg # of iterations =  2.3

     total cpu time spent up to now is       51.2 secs

     total energy              =    -273.30318535 Ry
     estimated scf accuracy    <       0.00000523 Ry

     iteration # 17     ecut=    60.00 Ry     beta= 0.70
     Davidson diagonalization with overlap
     ethr =  1.25E-08,  avg # of iterations =  3.7

     total cpu time spent up to now is       51.6 secs

     total energy              =    -273.30318617 Ry
     estimated scf accuracy    <       0.00000051 Ry

     iteration # 18     ecut=    60.00 Ry     beta= 0.70
     Davidson diagonalization with overlap
     ethr =  1.22E-09,  avg # of iterations =  4.8

     total cpu time spent up to now is       51.9 secs

     total energy              =    -273.30318618 Ry
     estimated scf accuracy    <       0.00000041 Ry

     iteration # 19     ecut=    60.00 Ry     beta= 0.70
     Davidson diagonalization with overlap
     ethr =  9.65E-10,  avg # of iterations =  2.3

     total cpu time spent up to now is       52.2 secs

     total energy              =    -273.30318620 Ry
     estimated scf accuracy    <       0.00000003 Ry

     iteration # 20     ecut=    60.00 Ry     beta= 0.70
     Davidson diagonalization with overlap
     ethr =  7.48E-11,  avg # of iterations =  6.1

     total cpu time spent up to now is       52.7 secs

     total energy              =    -273.30318622 Ry
     estimated scf accuracy    <       0.00000005 Ry

     iteration # 21     ecut=    60.00 Ry     beta= 0.70
     Davidson diagonalization with overlap
     ethr =  7.48E-11,  avg # of iterations =  2.3

     total cpu time spent up to now is       53.0 secs

     End of self-consistent calculation

          k = 0.0000 0.0000 0.0000 ( 18467 PWs)   bands (ev):

   -58.6487 -57.6472 -33.7129 -33.5845 -33.4311 -33.0644 -32.8183 -32.6238
   -16.6958 -12.3860  -9.7181  -8.8301  -6.6631  -6.5434  -6.1466  -6.1306
    -5.2870  -3.8241  -3.1823  -2.8501  -2.5687  -0.1863   0.2027   0.3130
     1.4164

          k = 0.0000 0.2802 0.0000 ( 18451 PWs)   bands (ev):

   -58.6454 -57.6431 -33.6831 -33.5919 -33.4832 -33.1895 -32.8037 -32.6449
   -16.0718 -12.0503  -9.9769  -9.3590  -7.3192  -6.3706  -5.7687  -5.4095
    -4.9213  -3.8750  -3.1996  -3.1450  -1.6318  -1.0378   0.0138   0.4922
     0.7333

          k = 0.0000 0.5605 0.0000 ( 18456 PWs)   bands (ev):

   -58.6402 -57.6365 -33.6312 -33.6191 -33.5591 -33.3737 -32.7828 -32.6822
   -14.9337 -11.4522 -10.3057 -10.0119  -7.6499  -6.3127  -5.5767  -5.0454
    -4.1763  -4.0248  -3.1358  -2.9123  -1.4851  -0.5838  -0.5615   0.3300
     0.4731

          k = 0.2000 0.0000 0.0000 ( 18411 PWs)   bands (ev):

   -58.6483 -57.6476 -33.6953 -33.5857 -33.4202 -33.0759 -32.8155 -32.6463
   -16.6658 -12.2970  -9.9494  -8.9471  -6.6744  -6.4039  -5.9606  -5.7558
    -5.2176  -4.0832  -3.4599  -2.6807  -2.4689  -0.9199  -0.0131   0.6545
     0.9226

          k = 0.2000 0.2802 0.0000 ( 18455 PWs)   bands (ev):

   -58.6452 -57.6434 -33.6870 -33.5885 -33.4784 -33.1900 -32.8020 -32.6523
   -16.0483 -11.9655 -10.1553  -9.4814  -7.2008  -6.3187  -5.5160  -5.3340
    -4.8273  -4.0612  -3.3509  -2.7228  -1.9653  -1.0229  -0.7093   0.3047
     0.9765

          k = 0.2000 0.5605 0.0000 ( 18480 PWs)   bands (ev):

   -58.6401 -57.6365 -33.7056 -33.5841 -33.5715 -33.3326 -32.7874 -32.6644
   -14.9213 -11.3827 -10.4473 -10.1535  -7.4125  -6.1698  -5.5112  -4.9580
    -4.2113  -4.0510  -3.2373  -2.8881  -1.6461  -1.1058  -0.6405   0.2616
     0.6252

          k = 0.4000 0.0000 0.0000 ( 18461 PWs)   bands (ev):

   -58.6476 -57.6484 -33.6628 -33.5919 -33.4014 -33.0967 -32.8065 -32.6889
   -16.6195 -12.1151 -10.3435  -9.1053  -6.6925  -6.1211  -5.4855  -5.2294
    -5.1171  -4.4306  -3.8660  -2.7771  -2.2089  -1.4375  -1.1016   0.6227
     1.9262

          k = 0.4000 0.2802 0.0000 ( 18436 PWs)   bands (ev):

   -58.6447 -57.6439 -33.6878 -33.5860 -33.4778 -33.1849 -32.7975 -32.6666
   -16.0093 -11.7780 -10.5127  -9.6244  -6.9971  -6.2495  -5.2699  -5.0312
    -4.5776  -4.0794  -3.6815  -2.6842  -2.1551  -1.4437  -1.2988   0.6867
     1.2546

          k = 0.4000 0.5605 0.0000 ( 18424 PWs)   bands (ev):

   -58.6400 -57.6366 -33.7644 -33.5968 -33.5713 -33.2763 -32.7919 -32.6383
   -14.9000 -11.1831 -10.7791 -10.3210  -7.0333  -5.9526  -5.4935  -4.7750
    -4.1545  -3.8318  -3.6123  -3.0614  -1.6774  -1.4420  -1.2817   0.3164
     0.9203

     the Fermi energy is    -1.5207 ev

!    total energy              =    -273.30318622 Ry
     estimated scf accuracy    <          1.4E-09 Ry
     smearing contrib. (-TS)   =      -0.00299509 Ry
     internal energy E=F+TS    =    -273.30019113 Ry

     The total energy is F=E-TS. E is the sum of the following terms:
     one-electron contribution =   -1646.90459050 Ry
     hartree contribution      =     820.44117800 Ry
     xc contribution           =     -41.02720195 Ry
     ewald contribution        =     594.19042332 Ry

     convergence has been achieved in  21 iterations

     Forces acting on atoms (cartesian axes, Ry/au):

     atom    1 type  1   force =     0.00000000    0.01402799   -0.11038007
     atom    2 type  1   force =     0.00000000   -0.00249725   -0.02469412
     atom    3 type  2   force =    -0.07768059   -0.00122741   -0.01565394
     atom    4 type  2   force =     0.07768059   -0.00122741   -0.01565394
     atom    5 type  2   force =     0.03785433   -0.00453796    0.08319103
     atom    6 type  2   force =    -0.03785433   -0.00453796    0.08319103

     Total force =     0.205686     Total SCF correction =     0.000050
     Energy error            =      9.9E-02 Ry
     Gradient error          =      1.1E-01 Ry/Bohr

     number of scf cycles    =   5
     number of bfgs steps    =   4

     energy             old  =    -273.2045413628 Ry
     energy             new  =    -273.3031862217 Ry

     CASE: energy            _new < energy            _old

     new trust radius        =       0.4250723009 bohr
     new conv_thr            =       0.0000000100 Ry


ATOMIC_POSITIONS (alat)
Nb            0.5000000000       -0.0016233654        0.2816595326
Nb            0.0000000000        0.3551705036        0.1418880223
C             1.2178029178       -0.0005739040        0.0177377625
C             1.7821970822       -0.0005739040        0.0177377625
C             1.3598667972        0.3522277542        0.4704884601
C             1.6401332028        0.3522277542        0.4704884601



     Writing output data file /home/fernando/serse/temp/NB.save/
     NEW-OLD atomic charge density approx. for the potential

     negative rho (up, down):  5.061E-05 0.000E+00

     total cpu time spent up to now is       53.5 secs

     Self-consistent Calculation

     iteration #  1     ecut=    60.00 Ry     beta= 0.70
     Davidson diagonalization with overlap
     c_bands:  1 eigenvalues not converged
     ethr =  1.00E-06,  avg # of iterations = 33.8

     total cpu time spent up to now is       55.9 secs

     total energy              =    -194.51036965 Ry
     estimated scf accuracy    <     111.42483854 Ry

     iteration #  2     ecut=    60.00 Ry     beta= 0.70
     Davidson diagonalization with overlap
     ethr =  1.00E-02,  avg # of iterations = 17.3

     negative rho (up, down):  2.406E-06 0.000E+00

     total cpu time spent up to now is       57.4 secs

     total energy              =    -231.09706358 Ry
     estimated scf accuracy    <     586.30074248 Ry

     iteration #  3     ecut=    60.00 Ry     beta= 0.70
     Davidson diagonalization with overlap
     ethr =  1.00E-02,  avg # of iterations = 11.7

     negative rho (up, down):  3.238E-06 0.000E+00

     total cpu time spent up to now is       58.3 secs

     total energy              =    -274.41076995 Ry
     estimated scf accuracy    <      61.28890456 Ry

     iteration #  4     ecut=    60.00 Ry     beta= 0.70
     Davidson diagonalization with overlap
     ethr =  1.00E-02,  avg # of iterations =  4.4

     negative rho (up, down):  2.785E-06 0.000E+00

     total cpu time spent up to now is       58.7 secs

     total energy              =    -273.26284986 Ry
     estimated scf accuracy    <      24.96155646 Ry

     iteration #  5     ecut=    60.00 Ry     beta= 0.70
     Davidson diagonalization with overlap
     ethr =  1.00E-02,  avg # of iterations =  4.8

     negative rho (up, down):  1.383E-06 0.000E+00

     total cpu time spent up to now is       59.1 secs

     total energy              =    -272.58231354 Ry
     estimated scf accuracy    <       8.68619462 Ry

     iteration #  6     ecut=    60.00 Ry     beta= 0.70
     Davidson diagonalization with overlap
     ethr =  1.00E-02,  avg # of iterations =  4.0

     negative rho (up, down):  2.435E-07 0.000E+00

     total cpu time spent up to now is       59.5 secs

     total energy              =    -273.40815810 Ry
     estimated scf accuracy    <       0.97424587 Ry

     iteration #  7     ecut=    60.00 Ry     beta= 0.70
     Davidson diagonalization with overlap
     ethr =  2.32E-03,  avg # of iterations =  2.1

     total cpu time spent up to now is       59.8 secs

     total energy              =    -273.32248239 Ry
     estimated scf accuracy    <       1.75929861 Ry

     iteration #  8     ecut=    60.00 Ry     beta= 0.70
     Davidson diagonalization with overlap
     ethr =  2.32E-03,  avg # of iterations =  2.4

     total cpu time spent up to now is       60.1 secs

     total energy              =    -273.22560301 Ry
     estimated scf accuracy    <       0.48665713 Ry

     iteration #  9     ecut=    60.00 Ry     beta= 0.70
     Davidson diagonalization with overlap
     ethr =  1.16E-03,  avg # of iterations =  6.9

     total cpu time spent up to now is       60.5 secs

     total energy              =    -273.41901014 Ry
     estimated scf accuracy    <       0.38489119 Ry

     iteration # 10     ecut=    60.00 Ry     beta= 0.70
     Davidson diagonalization with overlap
     ethr =  9.16E-04,  avg # of iterations =  1.0

     negative rho (up, down):  6.107E-06 0.000E+00

     total cpu time spent up to now is       60.8 secs

     total energy              =    -273.30426349 Ry
     estimated scf accuracy    <       0.32958629 Ry

     iteration # 11     ecut=    60.00 Ry     beta= 0.70
     Davidson diagonalization with overlap
     ethr =  7.85E-04,  avg # of iterations =  2.7

     total cpu time spent up to now is       61.1 secs

     total energy              =    -273.35861377 Ry
     estimated scf accuracy    <       0.10924454 Ry

     iteration # 12     ecut=    60.00 Ry     beta= 0.70
     Davidson diagonalization with overlap
     ethr =  2.60E-04,  avg # of iterations =  1.7

     total cpu time spent up to now is       61.4 secs

     total energy              =    -273.37491180 Ry
     estimated scf accuracy    <       0.00169940 Ry

     iteration # 13     ecut=    60.00 Ry     beta= 0.70
     Davidson diagonalization with overlap
     c_bands:  1 eigenvalues not converged
     c_bands:  1 eigenvalues not converged
     ethr =  4.05E-06,  avg # of iterations = 13.6

     total cpu time spent up to now is       62.0 secs

     total energy              =    -273.37599899 Ry
     estimated scf accuracy    <       0.00130544 Ry

     iteration # 14     ecut=    60.00 Ry     beta= 0.70
     Davidson diagonalization with overlap
     ethr =  3.11E-06,  avg # of iterations =  1.8

     total cpu time spent up to now is       62.3 secs

     total energy              =    -273.37591221 Ry
     estimated scf accuracy    <       0.00052942 Ry

     iteration # 15     ecut=    60.00 Ry     beta= 0.70
     Davidson diagonalization with overlap
     ethr =  1.26E-06,  avg # of iterations =  4.3

     total cpu time spent up to now is       62.6 secs

     total energy              =    -273.37598260 Ry
     estimated scf accuracy    <       0.00001603 Ry

     iteration # 16     ecut=    60.00 Ry     beta= 0.70
     Davidson diagonalization with overlap
     ethr =  3.82E-08,  avg # of iterations =  6.3

     total cpu time spent up to now is       63.1 secs

     total energy              =    -273.37598962 Ry
     estimated scf accuracy    <       0.00001477 Ry

     iteration # 17     ecut=    60.00 Ry     beta= 0.70
     Davidson diagonalization with overlap
     ethr =  3.52E-08,  avg # of iterations =  1.7

     total cpu time spent up to now is       63.4 secs

     total energy              =    -273.37599016 Ry
     estimated scf accuracy    <       0.00000202 Ry

     iteration # 18     ecut=    60.00 Ry     beta= 0.70
     Davidson diagonalization with overlap
     ethr =  4.82E-09,  avg # of iterations =  7.1

     total cpu time spent up to now is       63.8 secs

     total energy              =    -273.37599058 Ry
     estimated scf accuracy    <       0.00000138 Ry

     iteration # 19     ecut=    60.00 Ry     beta= 0.70
     Davidson diagonalization with overlap
     ethr =  3.30E-09,  avg # of iterations =  1.9

     total cpu time spent up to now is       64.1 secs

     total energy              =    -273.37599062 Ry
     estimated scf accuracy    <       0.00000016 Ry

     iteration # 20     ecut=    60.00 Ry     beta= 0.70
     Davidson diagonalization with overlap
     ethr =  3.83E-10,  avg # of iterations =  6.1

     total cpu time spent up to now is       64.5 secs

     total energy              =    -273.37599068 Ry
     estimated scf accuracy    <       0.00000029 Ry

     iteration # 21     ecut=    60.00 Ry     beta= 0.70
     Davidson diagonalization with overlap
     ethr =  3.83E-10,  avg # of iterations =  2.2

     total cpu time spent up to now is       64.9 secs

     total energy              =    -273.37599070 Ry
     estimated scf accuracy    <       0.00000002 Ry

     iteration # 22     ecut=    60.00 Ry     beta= 0.70
     Davidson diagonalization with overlap
     ethr =  3.79E-11,  avg # of iterations =  6.0

     total cpu time spent up to now is       65.3 secs

     total energy              =    -273.37599071 Ry
     estimated scf accuracy    <       0.00000002 Ry

     iteration # 23     ecut=    60.00 Ry     beta= 0.70
     Davidson diagonalization with overlap
     ethr =  3.79E-11,  avg # of iterations =  1.0

     total cpu time spent up to now is       65.6 secs

     End of self-consistent calculation

          k = 0.0000 0.0000 0.0000 ( 18467 PWs)   bands (ev):

   -58.7950 -57.9542 -33.8869 -33.6975 -33.6511 -33.2150 -33.1159 -32.9175
   -16.8089 -13.1341  -9.9683  -8.3535  -7.1944  -6.4015  -6.2819  -6.1951
    -6.0568  -4.3442  -3.4337  -2.8670  -1.7982  -0.1732   0.0931   0.1823
     0.6000

          k = 0.0000 0.2802 0.0000 ( 18451 PWs)   bands (ev):

   -58.7912 -57.9511 -33.8475 -33.7305 -33.6832 -33.2240 -33.1898 -32.9489
   -16.5212 -12.7177 -10.2358  -8.6677  -7.3897  -6.1779  -5.9983  -5.6747
    -5.5695  -4.5338  -3.7488  -2.9652  -1.2857  -0.9451  -0.2936   0.2169
     0.4108

          k = 0.0000 0.5605 0.0000 ( 18456 PWs)   bands (ev):

   -58.7851 -57.9460 -33.8210 -33.7760 -33.6952 -33.3729 -33.1720 -33.0067
   -16.0771 -11.9502 -10.5948  -9.1286  -7.1937  -6.2491  -5.3427  -5.0007
    -4.7153  -4.3920  -4.3462  -3.1072  -1.4190  -1.0499  -0.8807  -0.1996
     0.6089

          k = 0.2000 0.0000 0.0000 ( 18411 PWs)   bands (ev):

   -58.7944 -57.9549 -33.8602 -33.6973 -33.6418 -33.2124 -33.1258 -32.9515
   -16.7877 -13.0574 -10.0472  -8.5433  -7.1406  -6.3891  -6.1034  -6.0963
    -5.8365  -4.4292  -3.5672  -2.4888  -2.3452  -1.0490  -0.6311   0.4959
     0.9722

          k = 0.2000 0.2802 0.0000 ( 18455 PWs)   bands (ev):

   -58.7908 -57.9516 -33.8446 -33.7200 -33.6887 -33.2335 -33.1820 -32.9572
   -16.5077 -12.6442 -10.3267  -8.8364  -7.2569  -6.1175  -5.9097  -5.6649
    -5.4105  -4.6261  -3.7872  -2.6319  -1.7721  -1.2141  -0.7674  -0.1447
     1.3772

          k = 0.2000 0.5605 0.0000 ( 18480 PWs)   bands (ev):

   -58.7850 -57.9461 -33.8517 -33.8048 -33.6880 -33.3400 -33.1769 -32.9787
   -16.0732 -11.8925 -10.7147  -9.3001  -6.9284  -6.0391  -5.2916  -5.0013
    -4.8175  -4.5419  -4.2242  -3.1175  -1.6559  -1.3524  -0.5829  -0.3753
     0.3643

          k = 0.4000 0.0000 0.0000 ( 18461 PWs)   bands (ev):

   -58.7933 -57.9561 -33.8110 -33.7014 -33.6266 -33.2022 -33.1428 -33.0164
   -16.7562 -12.9222 -10.1757  -8.8394  -7.0614  -6.3458  -5.9032  -5.8566
    -5.3297  -4.1845  -4.0964  -3.0629  -2.7113  -1.2408  -1.1041   0.5975
     1.6531

          k = 0.4000 0.2802 0.0000 ( 18436 PWs)   bands (ev):

   -58.7901 -57.9523 -33.8265 -33.7244 -33.6946 -33.2457 -33.1583 -32.9794
   -16.4859 -12.5083 -10.4823  -9.0883  -7.0280  -6.1371  -5.7953  -5.5821
    -4.9929  -4.5340  -3.9223  -2.8468  -2.4711  -1.3744  -1.0682   0.4062
     1.5987

          k = 0.4000 0.5605 0.0000 ( 18424 PWs)   bands (ev):

   -58.7849 -57.9462 -33.8801 -33.8582 -33.6819 -33.2928 -33.1791 -32.9392
   -16.0649 -11.7698 -10.9255  -9.5263  -6.4721  -5.7341  -5.4789  -5.0766
    -4.6606  -4.3981  -4.1575  -3.5001  -1.7185  -1.6000  -1.1546  -0.0415
     0.5229

     the Fermi energy is    -1.5060 ev

!    total energy              =    -273.37599070 Ry
     estimated scf accuracy    <          6.5E-09 Ry
     smearing contrib. (-TS)   =      -0.00188858 Ry
     internal energy E=F+TS    =    -273.37410212 Ry

     The total energy is F=E-TS. E is the sum of the following terms:
     one-electron contribution =   -1637.64029264 Ry
     hartree contribution      =     815.48910318 Ry
     xc contribution           =     -41.03310463 Ry
     ewald contribution        =     589.81019197 Ry

     convergence has been achieved in  23 iterations

     Forces acting on atoms (cartesian axes, Ry/au):

     atom    1 type  1   force =     0.00000000   -0.01732269    0.08554542
     atom    2 type  1   force =     0.00000000    0.00113386    0.10303206
     atom    3 type  2   force =    -0.13522576   -0.00138058   -0.08643208
     atom    4 type  2   force =     0.13522576   -0.00138058   -0.08643208
     atom    5 type  2   force =     0.01322219    0.00947499   -0.00785666
     atom    6 type  2   force =    -0.01322219    0.00947499   -0.00785666

     Total force =     0.265338     Total SCF correction =     0.000111
     Energy error            =      7.3E-02 Ry
     Gradient error          =      1.4E-01 Ry/Bohr

     number of scf cycles    =   6
     number of bfgs steps    =   5

     energy             old  =    -273.3031862217 Ry
     energy             new  =    -273.3759907038 Ry

     CASE: energy            _new < energy            _old

     new trust radius        =       0.1809809064 bohr
     new conv_thr            =       0.0000000100 Ry


ATOMIC_POSITIONS (alat)
Nb            0.5000000000       -0.0020518758        0.2738238854
Nb            0.0000000000        0.3550849068        0.1443348625
C             1.1995868681       -0.0007869940        0.0113379249
C             1.8004131319       -0.0007869940        0.0113379249
C             1.3631493939        0.3526978979        0.4795827011
C             1.6368506061        0.3526978979        0.4795827011



     Writing output data file /home/fernando/serse/temp/NB.save/
     NEW-OLD atomic charge density approx. for the potential

     negative rho (up, down):  5.926E-06 0.000E+00

     total cpu time spent up to now is       66.1 secs

     Self-consistent Calculation

     iteration #  1     ecut=    60.00 Ry     beta= 0.70
     Davidson diagonalization with overlap
     c_bands:  1 eigenvalues not converged
     c_bands:  1 eigenvalues not converged
     c_bands:  1 eigenvalues not converged
     c_bands:  1 eigenvalues not converged
     c_bands:  1 eigenvalues not converged
     ethr =  1.00E-06,  avg # of iterations = 19.6

     total cpu time spent up to now is       67.7 secs

     total energy              =    -272.39757340 Ry
     estimated scf accuracy    <       1.50939443 Ry

     iteration #  2     ecut=    60.00 Ry     beta= 0.70
     Davidson diagonalization with overlap
     ethr =  3.59E-03,  avg # of iterations =  8.6

     negative rho (up, down):  2.108E-06 0.000E+00

     total cpu time spent up to now is       68.3 secs

     total energy              =    -269.36079480 Ry
     estimated scf accuracy    <      45.26578611 Ry

     iteration #  3     ecut=    60.00 Ry     beta= 0.70
     Davidson diagonalization with overlap
     ethr =  3.59E-03,  avg # of iterations =  6.0

     negative rho (up, down):  1.146E-06 0.000E+00

     total cpu time spent up to now is       68.8 secs

     total energy              =    -273.34087854 Ry
     estimated scf accuracy    <       0.20838656 Ry

     iteration #  4     ecut=    60.00 Ry     beta= 0.70
     Davidson diagonalization with overlap
     ethr =  4.96E-04,  avg # of iterations =  6.1

     negative rho (up, down):  4.430E-07 0.000E+00

     total cpu time spent up to now is       69.2 secs

     total energy              =    -273.40495474 Ry
     estimated scf accuracy    <       0.26583747 Ry

     iteration #  5     ecut=    60.00 Ry     beta= 0.70
     Davidson diagonalization with overlap
     ethr =  4.96E-04,  avg # of iterations =  2.0

     total cpu time spent up to now is       69.5 secs

     total energy              =    -273.41794524 Ry
     estimated scf accuracy    <       0.04258498 Ry

     iteration #  6     ecut=    60.00 Ry     beta= 0.70
     Davidson diagonalization with overlap
     ethr =  1.01E-04,  avg # of iterations =  5.8

     total cpu time spent up to now is       69.9 secs

     total energy              =    -273.42369944 Ry
     estimated scf accuracy    <       0.01296396 Ry

[...]
     atom    4 type  2   force =    -0.00010497   -0.00001177   -0.00016103
     atom    5 type  2   force =     0.00041274    0.00019024    0.00004721
     atom    6 type  2   force =    -0.00041274    0.00019024    0.00004721

     Total force =     0.001095     Total SCF correction =     0.000007
     Energy error            =      5.9E-06 Ry
     Gradient error          =      6.8E-04 Ry/Bohr

     number of scf cycles    =  27
     number of bfgs steps    =  26

     energy             old  =    -273.6817104011 Ry
     energy             new  =    -273.6817162559 Ry

     CASE: energy            _new < energy            _old

     new trust radius        =       0.0011844257 bohr
     new conv_thr            =            1.0E-10 Ry


ATOMIC_POSITIONS (alat)
Nb            0.5000000000       -0.0022333044        0.2161721245
Nb            0.0000000000        0.3545582612        0.2505103957
C             1.1382480778       -0.0022805057        0.0057829514
C             1.8617519222       -0.0022805057        0.0057829514
C             1.3617451352        0.3545454467        0.4608757885
C             1.6382548648        0.3545454467        0.4608757885



     Writing output data file /home/fernando/serse/temp/NB.save/
     NEW-OLD atomic charge density approx. for the potential

     total cpu time spent up to now is      207.4 secs

     Self-consistent Calculation

     iteration #  1     ecut=    60.00 Ry     beta= 0.70
     Davidson diagonalization with overlap
     ethr =  1.00E-06,  avg # of iterations =  3.0

     total cpu time spent up to now is      207.8 secs

     total energy              =    -273.68163819 Ry
     estimated scf accuracy    <       0.00017834 Ry

     iteration #  2     ecut=    60.00 Ry     beta= 0.70
     Davidson diagonalization with overlap
     ethr =  4.25E-07,  avg # of iterations =  5.6

     total cpu time spent up to now is      208.2 secs

     total energy              =    -273.68155603 Ry
     estimated scf accuracy    <       0.00083630 Ry

     iteration #  3     ecut=    60.00 Ry     beta= 0.70
     Davidson diagonalization with overlap
     ethr =  4.25E-07,  avg # of iterations =  5.7

     total cpu time spent up to now is      208.7 secs

     total energy              =    -273.68170174 Ry
     estimated scf accuracy    <       0.00012601 Ry

     iteration #  4     ecut=    60.00 Ry     beta= 0.70
     Davidson diagonalization with overlap
     ethr =  3.00E-07,  avg # of iterations =  2.2

     total cpu time spent up to now is      209.0 secs

     total energy              =    -273.68171473 Ry
     estimated scf accuracy    <       0.00000609 Ry

     iteration #  5     ecut=    60.00 Ry     beta= 0.70
     Davidson diagonalization with overlap
     ethr =  1.45E-08,  avg # of iterations =  5.3

     total cpu time spent up to now is      209.3 secs

     total energy              =    -273.68171707 Ry
     estimated scf accuracy    <       0.00000070 Ry

     iteration #  6     ecut=    60.00 Ry     beta= 0.70
     Davidson diagonalization with overlap
     ethr =  1.67E-09,  avg # of iterations =  4.6

     total cpu time spent up to now is      209.7 secs

     total energy              =    -273.68171718 Ry
     estimated scf accuracy    <       0.00000045 Ry

     iteration #  7     ecut=    60.00 Ry     beta= 0.70
     Davidson diagonalization with overlap
     ethr =  1.08E-09,  avg # of iterations =  2.0

     total cpu time spent up to now is      210.0 secs

     total energy              =    -273.68171719 Ry
     estimated scf accuracy    <       0.00000008 Ry

     iteration #  8     ecut=    60.00 Ry     beta= 0.70
     Davidson diagonalization with overlap
     ethr =  1.96E-10,  avg # of iterations =  5.1

     total cpu time spent up to now is      210.4 secs

     total energy              =    -273.68171721 Ry
     estimated scf accuracy    <          1.8E-09 Ry

     iteration #  9     ecut=    60.00 Ry     beta= 0.70
     Davidson diagonalization with overlap
     ethr =  4.24E-12,  avg # of iterations =  5.9

     total cpu time spent up to now is      210.8 secs

     total energy              =    -273.68171721 Ry
     estimated scf accuracy    <          1.6E-09 Ry

     iteration # 10     ecut=    60.00 Ry     beta= 0.70
     Davidson diagonalization with overlap
     ethr =  3.90E-12,  avg # of iterations =  1.9

     total cpu time spent up to now is      211.1 secs

     total energy              =    -273.68171721 Ry
     estimated scf accuracy    <          1.5E-10 Ry

     iteration # 11     ecut=    60.00 Ry     beta= 0.70
     Davidson diagonalization with overlap
     ethr =  3.68E-13,  avg # of iterations =  5.3

     total cpu time spent up to now is      211.5 secs

     End of self-consistent calculation

          k = 0.0000 0.0000 0.0000 ( 18467 PWs)   bands (ev):

   -58.5495 -58.4457 -33.7823 -33.6783 -33.5841 -33.4272 -33.3798 -33.0368
   -16.7644 -16.3513  -9.2411  -7.9701  -7.9363  -7.0677  -6.6624  -5.9986
    -5.6235  -5.1004  -5.0439  -0.6430  -0.2623  -0.2066   1.0349   1.0405
     1.0991

          k = 0.0000 0.2802 0.0000 ( 18451 PWs)   bands (ev):

   -58.5366 -58.4526 -33.7182 -33.7097 -33.5581 -33.4828 -33.4262 -33.1061
   -16.5882 -16.2690  -9.1152  -8.0910  -7.8351  -6.7087  -6.6856  -5.7863
    -5.5528  -5.1204  -5.0208  -1.8779  -1.0721  -0.0351   0.1060   0.1760
     0.9810

          k = 0.0000 0.5605 0.0000 ( 18456 PWs)   bands (ev):

   -58.5058 -58.4736 -33.7491 -33.6588 -33.5206 -33.5053 -33.4564 -33.2896
   -16.2883 -16.1777  -8.8200  -8.4509  -7.3964  -6.6557  -6.2445  -5.8832
    -4.8868  -4.8076  -4.7841  -3.6433  -1.6980  -0.8123  -0.2927   0.1488
     0.5537

          k = 0.2000 0.0000 0.0000 ( 18411 PWs)   bands (ev):

   -58.5396 -58.4557 -33.7198 -33.6504 -33.5644 -33.4444 -33.4090 -33.1103
   -16.6703 -16.3415  -9.4116  -8.3086  -7.4701  -6.8772  -6.6440  -6.0432
    -5.7843  -5.2505  -4.6152  -1.4351  -1.3175  -0.3046  -0.0481   0.7385
     0.8098

          k = 0.2000 0.2802 0.0000 ( 18455 PWs)   bands (ev):

   -58.5286 -58.4606 -33.7888 -33.5633 -33.5430 -33.5412 -33.4400 -33.1288
   -16.5106 -16.2564  -9.3807  -8.5007  -7.3428  -6.5803  -6.4567  -5.8855
    -5.6730  -5.2344  -4.7095  -2.0032  -1.6213  -0.9510  -0.1336   0.6337
     1.3638

          k = 0.2000 0.5605 0.0000 ( 18480 PWs)   bands (ev):

   -58.5027 -58.4767 -33.8347 -33.7432 -33.5007 -33.4611 -33.4009 -33.2323
   -16.2429 -16.1546  -9.2396  -8.9082  -6.9480  -6.3308  -6.1137  -5.7893
    -5.1142  -5.0517  -4.3212  -3.3736  -2.0877  -1.5004  -0.5783   0.5236
     0.8448

          k = 0.4000 0.0000 0.0000 ( 18461 PWs)   bands (ev):

   -58.5138 -58.4818 -33.5773 -33.5769 -33.4919 -33.4896 -33.4853 -33.2964
   -16.4836 -16.3619  -9.4135  -8.9743  -6.6194  -6.5838  -6.4826  -6.1471
    -6.1197  -5.6452  -3.5055  -2.3289  -2.3215  -1.9712  -0.0840   0.3140
     1.6461

          k = 0.4000 0.2802 0.0000 ( 18436 PWs)   bands (ev):

   -58.5077 -58.4817 -33.7663 -33.6647 -33.5140 -33.4733 -33.3752 -33.2173
   -16.3560 -16.2612  -9.5185  -9.1678  -6.6006  -6.2076  -6.1679  -6.0950
    -5.8706  -5.6433  -3.8336  -2.9655  -1.9121  -1.8575   0.1971   0.2094
     1.2542

          k = 0.4000 0.5605 0.0000 ( 18424 PWs)   bands (ev):

   -58.4946 -58.4847 -33.8985 -33.8605 -33.4883 -33.4731 -33.2499 -33.1886
   -16.1554 -16.1225  -9.6427  -9.5101  -6.3868  -6.1497  -5.8703  -5.6848
    -5.1657  -5.1358  -3.6711  -3.0793  -2.9459  -2.4457  -0.0207   0.1481
     1.1405

     the Fermi energy is    -1.6215 ev

!    total energy              =    -273.68171721 Ry
     estimated scf accuracy    <          5.9E-11 Ry
     smearing contrib. (-TS)   =      -0.00178051 Ry
     internal energy E=F+TS    =    -273.67993671 Ry

     The total energy is F=E-TS. E is the sum of the following terms:
     one-electron contribution =   -1654.14108992 Ry
     hartree contribution      =     823.37965732 Ry
     xc contribution           =     -41.14227889 Ry
     ewald contribution        =     598.22377477 Ry

     convergence has been achieved in  11 iterations

     Forces acting on atoms (cartesian axes, Ry/au):

     atom    1 type  1   force =     0.00000000   -0.00027930   -0.00009449
     atom    2 type  1   force =     0.00000000    0.00007018   -0.00000827
     atom    3 type  2   force =     0.00008144   -0.00000865    0.00001890
     atom    4 type  2   force =    -0.00008144   -0.00000865    0.00001890
     atom    5 type  2   force =     0.00001159    0.00011320    0.00003249
     atom    6 type  2   force =    -0.00001159    0.00011320    0.00003249

     Total force =     0.000366     Total SCF correction =     0.000010
     Energy error            =      9.6E-07 Ry
     Gradient error          =      2.8E-04 Ry/Bohr

     number of scf cycles    =  28
     number of bfgs steps    =  27

     energy             old  =    -273.6817162559 Ry
     energy             new  =    -273.6817172142 Ry

     CASE: energy            _new < energy            _old

     new trust radius        =       0.0004084129 bohr
     new conv_thr            =            1.0E-10 Ry


ATOMIC_POSITIONS (alat)
Nb            0.5000000000       -0.0022679126        0.2161456499
Nb            0.0000000000        0.3545667847        0.2505154450
C             1.1382522840       -0.0022927184        0.0057812982
C             1.8617477160       -0.0022927184        0.0057812982
C             1.3617516491        0.3545707018        0.4608881544
C             1.6382483509        0.3545707018        0.4608881544



     Writing output data file /home/fernando/serse/temp/NB.save/
     NEW-OLD atomic charge density approx. for the potential

     total cpu time spent up to now is      212.0 secs

     Self-consistent Calculation

     iteration #  1     ecut=    60.00 Ry     beta= 0.70
     Davidson diagonalization with overlap
     ethr =  1.00E-06,  avg # of iterations =  2.0

     Threshold (ethr) on eigenvalues was too large:
     Diagonalizing with lowered threshold

     Davidson diagonalization with overlap
     ethr =  3.28E-08,  avg # of iterations =  2.0

     total cpu time spent up to now is      212.6 secs

     total energy              =    -273.68170811 Ry
     estimated scf accuracy    <       0.00001820 Ry

     iteration #  2     ecut=    60.00 Ry     beta= 0.70
     Davidson diagonalization with overlap
     ethr =  4.33E-08,  avg # of iterations =  5.8

     total cpu time spent up to now is      213.1 secs

     total energy              =    -273.68169596 Ry
     estimated scf accuracy    <       0.00013485 Ry

     iteration #  3     ecut=    60.00 Ry     beta= 0.70
     Davidson diagonalization with overlap
     ethr =  4.33E-08,  avg # of iterations =  5.3

     total cpu time spent up to now is      213.5 secs

     total energy              =    -273.68171637 Ry
     estimated scf accuracy    <       0.00000683 Ry

     iteration #  4     ecut=    60.00 Ry     beta= 0.70
     Davidson diagonalization with overlap
     ethr =  1.63E-08,  avg # of iterations =  2.7

     total cpu time spent up to now is      213.8 secs

     total energy              =    -273.68171714 Ry
     estimated scf accuracy    <       0.00000073 Ry

     iteration #  5     ecut=    60.00 Ry     beta= 0.70
     Davidson diagonalization with overlap
     ethr =  1.73E-09,  avg # of iterations =  4.7

     total cpu time spent up to now is      214.1 secs

     total energy              =    -273.68171730 Ry
     estimated scf accuracy    <       0.00000005 Ry

     iteration #  6     ecut=    60.00 Ry     beta= 0.70
     Davidson diagonalization with overlap
     ethr =  1.12E-10,  avg # of iterations =  5.1

     total cpu time spent up to now is      214.5 secs

     total energy              =    -273.68171731 Ry
     estimated scf accuracy    <       0.00000002 Ry

     iteration #  7     ecut=    60.00 Ry     beta= 0.70
     Davidson diagonalization with overlap
     ethr =  4.20E-11,  avg # of iterations =  2.4

     total cpu time spent up to now is      214.8 secs

     total energy              =    -273.68171732 Ry
     estimated scf accuracy    <          5.6E-09 Ry

     iteration #  8     ecut=    60.00 Ry     beta= 0.70
     Davidson diagonalization with overlap
     ethr =  1.33E-11,  avg # of iterations =  3.3

     total cpu time spent up to now is      215.2 secs

     total energy              =    -273.68171732 Ry
     estimated scf accuracy    <          3.6E-10 Ry

     iteration #  9     ecut=    60.00 Ry     beta= 0.70
     Davidson diagonalization with overlap
     ethr =  8.48E-13,  avg # of iterations =  6.0

     total cpu time spent up to now is      215.6 secs

     total energy              =    -273.68171732 Ry
     estimated scf accuracy    <          2.1E-10 Ry

     iteration # 10     ecut=    60.00 Ry     beta= 0.70
     Davidson diagonalization with overlap
     ethr =  5.05E-13,  avg # of iterations =  1.6

     total cpu time spent up to now is      215.9 secs

     End of self-consistent calculation

          k = 0.0000 0.0000 0.0000 ( 18467 PWs)   bands (ev):

   -58.5495 -58.4457 -33.7823 -33.6782 -33.5841 -33.4273 -33.3797 -33.0369
   -16.7643 -16.3513  -9.2410  -7.9700  -7.9362  -7.0676  -6.6622  -5.9984
    -5.6234  -5.1004  -5.0436  -0.6435  -0.2625  -0.2071   1.0344   1.0408
     1.0998

          k = 0.0000 0.2802 0.0000 ( 18451 PWs)   bands (ev):

   -58.5366 -58.4526 -33.7182 -33.7098 -33.5581 -33.4828 -33.4262 -33.1061
   -16.5882 -16.2690  -9.1150  -8.0909  -7.8350  -6.7086  -6.6856  -5.7862
    -5.5526  -5.1202  -5.0209  -1.8782  -1.0726  -0.0352   0.1061   0.1765
     0.9805

          k = 0.0000 0.5605 0.0000 ( 18456 PWs)   bands (ev):

   -58.5058 -58.4737 -33.7490 -33.6587 -33.5207 -33.5053 -33.4564 -33.2896
   -16.2883 -16.1777  -8.8198  -8.4507  -7.3963  -6.6558  -6.2447  -5.8833
    -4.8867  -4.8077  -4.7841  -3.6435  -1.6980  -0.8123  -0.2925   0.1491
     0.5539

          k = 0.2000 0.0000 0.0000 ( 18411 PWs)   bands (ev):

   -58.5396 -58.4557 -33.7199 -33.6504 -33.5644 -33.4445 -33.4090 -33.1103
   -16.6702 -16.3414  -9.4116  -8.3086  -7.4700  -6.8772  -6.6438  -6.0431
    -5.7842  -5.2505  -4.6148  -1.4353  -1.3176  -0.3041  -0.0482   0.7380
     0.8093

          k = 0.2000 0.2802 0.0000 ( 18455 PWs)   bands (ev):

   -58.5286 -58.4607 -33.7887 -33.5634 -33.5430 -33.5411 -33.4400 -33.1289
   -16.5106 -16.2564  -9.3806  -8.5006  -7.3427  -6.5803  -6.4567  -5.8854
    -5.6729  -5.2344  -4.7093  -2.0035  -1.6211  -0.9510  -0.1338   0.6333
     1.3639

          k = 0.2000 0.5605 0.0000 ( 18480 PWs)   bands (ev):

   -58.5027 -58.4767 -33.8346 -33.7432 -33.5007 -33.4611 -33.4009 -33.2323
   -16.2430 -16.1547  -9.2395  -8.9080  -6.9479  -6.3308  -6.1139  -5.7893
    -5.1142  -5.0518  -4.3211  -3.3737  -2.0876  -1.5004  -0.5782   0.5237
     0.8449

          k = 0.4000 0.0000 0.0000 ( 18461 PWs)   bands (ev):

   -58.5138 -58.4818 -33.5773 -33.5770 -33.4919 -33.4896 -33.4853 -33.2964
   -16.4835 -16.3618  -9.4135  -8.9744  -6.6192  -6.5837  -6.4825  -6.1469
    -6.1196  -5.6452  -3.5051  -2.3290  -2.3215  -1.9707  -0.0844   0.3135
     1.6459

          k = 0.4000 0.2802 0.0000 ( 18436 PWs)   bands (ev):

   -58.5077 -58.4817 -33.7662 -33.6647 -33.5140 -33.4734 -33.3752 -33.2174
   -16.3559 -16.2611  -9.5184  -9.1677  -6.6005  -6.2076  -6.1677  -6.0951
    -5.8704  -5.6432  -3.8333  -2.9653  -1.9121  -1.8575   0.1970   0.2090
     1.2541

          k = 0.4000 0.5605 0.0000 ( 18424 PWs)   bands (ev):

   -58.4946 -58.4847 -33.8985 -33.8605 -33.4883 -33.4731 -33.2500 -33.1887
   -16.1554 -16.1225  -9.6426  -9.5100  -6.3869  -6.1497  -5.8702  -5.6848
    -5.1657  -5.1358  -3.6710  -3.0793  -2.9459  -2.4457  -0.0207   0.1482
     1.1404

     the Fermi energy is    -1.6214 ev

!    total energy              =    -273.68171732 Ry
     estimated scf accuracy    <          3.3E-11 Ry
     smearing contrib. (-TS)   =      -0.00178091 Ry
     internal energy E=F+TS    =    -273.67993641 Ry

     The total energy is F=E-TS. E is the sum of the following terms:
     one-electron contribution =   -1654.12761374 Ry
     hartree contribution      =     823.37292337 Ry
     xc contribution           =     -41.14220413 Ry
     ewald contribution        =     598.21695809 Ry

     convergence has been achieved in  10 iterations

     Forces acting on atoms (cartesian axes, Ry/au):

     atom    1 type  1   force =     0.00000000   -0.00006750    0.00000429
     atom    2 type  1   force =     0.00000000   -0.00000322   -0.00000955
     atom    3 type  2   force =    -0.00000874    0.00000679    0.00000464
     atom    4 type  2   force =     0.00000874    0.00000679    0.00000464
     atom    5 type  2   force =    -0.00006309    0.00002857   -0.00000201
     atom    6 type  2   force =     0.00006309    0.00002857   -0.00000201

     Total force =     0.000121     Total SCF correction =     0.000009
     Energy error            =      1.0E-07 Ry
     Gradient error          =      6.8E-05 Ry/Bohr

     bfgs converged in  29 scf cycles and  28 bfgs steps
     (criteria: energy <  1.0E-05 Ry, force <  1.0E-04 Ry/Bohr)

     End of BFGS Geometry Optimization

     Final energy             =    -273.6817173162 Ry

     File /home/fernando/serse/temp/NB.bfgs deleted, as requested
Begin final coordinates

ATOMIC_POSITIONS (alat)
Nb            0.5000000000       -0.0022679126        0.2161456499
Nb            0.0000000000        0.3545667847        0.2505154450
C             1.1382522840       -0.0022927184        0.0057812982
C             1.8617477160       -0.0022927184        0.0057812982
C             1.3617516491        0.3545707018        0.4608881544
C             1.6382483509        0.3545707018        0.4608881544
End final coordinates



     Writing output data file /home/fernando/serse/temp/NB.save/
 
     init_run     :      0.39s CPU      0.54s WALL (       1 calls)
     electrons    :    196.17s CPU    206.35s WALL (      29 calls)
     update_pot   :      4.22s CPU      4.24s WALL (      28 calls)
     forces       :      3.58s CPU      3.61s WALL (      29 calls)

     Called by init_run:
     wfcinit      :      0.09s CPU      0.16s WALL (       1 calls)
     potinit      :      0.10s CPU      0.11s WALL (       1 calls)
     hinit0       :      0.07s CPU      0.11s WALL (       1 calls)

     Called by electrons:
     c_bands      :    169.14s CPU    173.18s WALL (     432 calls)
     sum_band     :     17.25s CPU     17.70s WALL (     432 calls)
     v_of_rho     :      7.16s CPU      7.25s WALL (     460 calls)
     mix_rho      :      1.93s CPU      1.95s WALL (     432 calls)

     Called by c_bands:
     init_us_2    :      2.69s CPU      2.83s WALL (    8046 calls)
     cegterg      :    159.71s CPU    163.31s WALL (    3939 calls)

     Called by *egterg:
     cdiaghg      :     24.50s CPU     24.85s WALL (   25369 calls)
     h_psi        :    105.68s CPU    108.71s WALL (   25690 calls)
     g_psi        :      1.06s CPU      1.07s WALL (   21742 calls)

     Called by h_psi:
     h_psi:calbec :      8.28s CPU      8.53s WALL (   25690 calls)
     vloc_psi     :     90.16s CPU     92.80s WALL (   25690 calls)
     add_vuspsi   :      5.66s CPU      5.79s WALL (   25690 calls)

     General routines
     calbec       :      8.55s CPU      8.80s WALL (   26734 calls)
     fft          :      3.35s CPU      3.41s WALL (    5520 calls)
     ffts         :      0.25s CPU      0.26s WALL (     892 calls)
     fftw         :     87.96s CPU     90.52s WALL (  778760 calls)
     interpolate  :      0.48s CPU      0.49s WALL (     460 calls)
 
     Parallel routines
 
     PWSCF        :   3m24.77s CPU   3m39.22s WALL

 
   This run was terminated on:  17:47: 1  16Jan2025            

=------------------------------------------------------------------------------=
   JOB DONE.
=------------------------------------------------------------------------------=
