
     Program PWSCF v.6.8 starts on 16Jan2025 at 18:10:44 

     This program is part of the open-source Quantum ESPRESSO suite
     for quantum simulation of materials; please cite
         "P. Giannozzi et al., J. Phys.:Condens. Matter 21 395502 (2009);
         "P. Giannozzi et al., J. Phys.:Condens. Matter 29 465901 (2017);
         "P. Giannozzi et al., J. Chem. Phys. 152 154105 (2020);
          URL http://www.quantum-espresso.org", 
     in publications or presentations arising from this work. More details at
     http://www.quantum-espresso.org/quote

     Parallel version (MPI & OpenMP), running on      24 processor cores
     Number of MPI processes:                24
     Threads/MPI process:                     1

     MPI processes distributed on     1 nodes
     R & G space division:  proc/nbgrp/npool/nimage =      24
     184776 MiB available memory on the printing compute node when the environment starts
 
     Waiting for input...
     Reading input from standard input

     Current dimensions of program PWSCF are:
     Max number of different atomic species (ntypx) = 10
     Max number of k-points (npk) =  40000
     Max angular momentum in pseudopotentials (lmaxx) =  4
     Message from routine setup:
     no reason to have ecutrho>4*ecutwfc
     Message from routine setup:
     using ibrav=0 with symmetry is DISCOURAGED, use correct ibrav instead

     Subspace diagonalization in iterative solution of the eigenvalue problem:
     a serial algorithm will be used

 
     Parallelization info
     --------------------
     sticks:   dense  smooth     PW     G-vecs:    dense   smooth      PW
     Min          83      66     18                19841    14194    2050
     Max          85      67     19                19859    14205    2074
     Sum        1997    1595    441               476407   340767   49417
 
     Using Slab Decomposition
 

     Title: 
     NB relax                                                                   


     bravais-lattice index     =            0
     lattice parameter (alat)  =       9.3730  a.u.
     unit-cell volume          =    3526.2142 (a.u.)^3
     number of atoms/cell      =            6
     number of atomic types    =            2
     number of electrons       =        42.00
     number of Kohn-Sham states=           25
     kinetic-energy cutoff     =      80.0000  Ry
     charge density cutoff     =     400.0000  Ry
     scf convergence threshold =      1.0E-08
     mixing beta               =       0.7000
     number of iterations used =            8  plain     mixing
     energy convergence thresh.=      1.0E-05
     force convergence thresh. =      1.0E-04
     Exchange-correlation= SLA-PW-PBX-PBC
                           (   1   4   3   4   0   0   0)
     nstep                     =          100


     celldm(1)=   9.373000  celldm(2)=   0.000000  celldm(3)=   0.000000
     celldm(4)=   0.000000  celldm(5)=   0.000000  celldm(6)=   0.000000

     crystal axes: (cart. coord. in units of alat)
               a(1) = (   1.000000   0.000000   0.000000 )  
               a(2) = (   0.000000   0.713710   0.000000 )  
               a(3) = (   0.000000   0.000000   6.000000 )  

     reciprocal axes: (cart. coord. in units 2 pi/alat)
               b(1) = (  1.000000  0.000000  0.000000 )  
               b(2) = (  0.000000  1.401130  0.000000 )  
               b(3) = (  0.000000  0.000000  0.166667 )  


     PseudoPot. # 1 for Nb read from file:
     /home/fernando/serse/pseudos/Nb.pbe-sp-hgh.UPF
     MD5 check sum: 9806bd744c6e87f68d8a90a6c9e3b9fe
     Pseudo is Norm-conserving, Zval = 13.0
     Generated in analytical, separable form
     Using radial grid of 1227 points,  6 beta functions with: 
                l(1) =   0
                l(2) =   0
                l(3) =   1
                l(4) =   1
                l(5) =   2
                l(6) =   2

     PseudoPot. # 2 for C  read from file:
     /home/fernando/serse/pseudos/C.pbe-hgh.UPF
     MD5 check sum: ca26ff84b356733038fc2f5c468d1892
     Pseudo is Norm-conserving, Zval =  4.0
     Generated in analytical, separable form
     Using radial grid of 1073 points,  1 beta functions with: 
                l(1) =   0

     atomic species   valence    mass     pseudopotential
        Nb            13.00    92.90638     Nb( 1.00)
        C              4.00    12.01100     C ( 1.00)

      2 Sym. Ops. (no inversion) found



   Cartesian axes

     site n.     atom                  positions (alat units)
         1           Nb  tau(   1) = (   0.5000000  -0.0022777   0.2154592  )
         2           Nb  tau(   2) = (   0.0000000   0.3545577   0.2512003  )
         3           C   tau(   3) = (   1.1378722  -0.0022987   0.0060616  )
         4           C   tau(   4) = (   1.8621278  -0.0022987   0.0060616  )
         5           C   tau(   5) = (   1.3621283   0.3545861   0.4606086  )
         6           C   tau(   6) = (   1.6378717   0.3545861   0.4606086  )

     number of k points=     9  Gaussian smearing, width (Ry)=  0.0100
                       cart. coord. in units 2pi/alat
        k(    1) = (   0.0000000   0.0000000   0.0000000), wk =   0.0800000
        k(    2) = (   0.0000000   0.2802260   0.0000000), wk =   0.1600000
        k(    3) = (   0.0000000   0.5604520   0.0000000), wk =   0.1600000
        k(    4) = (   0.2000000   0.0000000   0.0000000), wk =   0.1600000
        k(    5) = (   0.2000000   0.2802260   0.0000000), wk =   0.3200000
        k(    6) = (   0.2000000   0.5604520   0.0000000), wk =   0.3200000
        k(    7) = (   0.4000000   0.0000000   0.0000000), wk =   0.1600000
        k(    8) = (   0.4000000   0.2802260   0.0000000), wk =   0.3200000
        k(    9) = (   0.4000000   0.5604520   0.0000000), wk =   0.3200000

     Dense  grid:   476407 G-vectors     FFT dimensions: (  60,  45, 360)

     Smooth grid:   340767 G-vectors     FFT dimensions: (  54,  40, 324)

     Estimated max dynamical RAM per process >      25.50 MB

     Estimated total dynamical RAM >     612.05 MB

     Initial potential from superposition of free atoms

     starting charge   15.99983, renormalised to   42.00000

     negative rho (up, down):  1.084E-05 0.000E+00
     Starting wfcs are   16 randomized atomic wfcs +    9 random wfcs

     total cpu time spent up to now is        1.0 secs

     Self-consistent Calculation

     iteration #  1     ecut=    80.00 Ry     beta= 0.70
     Davidson diagonalization with overlap
     c_bands:  1 eigenvalues not converged
     ethr =  1.00E-02,  avg # of iterations = 14.8

     total cpu time spent up to now is        3.7 secs

     total energy              =    -170.04905947 Ry
     estimated scf accuracy    <     423.83152134 Ry

     iteration #  2     ecut=    80.00 Ry     beta= 0.70
     Davidson diagonalization with overlap
     ethr =  1.00E-02,  avg # of iterations = 13.9

     total cpu time spent up to now is        6.2 secs

     total energy              =    -181.21357016 Ry
     estimated scf accuracy    <     230.00623421 Ry

     iteration #  3     ecut=    80.00 Ry     beta= 0.70
     Davidson diagonalization with overlap
     ethr =  1.00E-02,  avg # of iterations = 15.4

     total cpu time spent up to now is        8.9 secs

     total energy              =    -273.80517059 Ry
     estimated scf accuracy    <      53.12814661 Ry

     iteration #  4     ecut=    80.00 Ry     beta= 0.70
     Davidson diagonalization with overlap
     ethr =  1.00E-02,  avg # of iterations =  6.3

     total cpu time spent up to now is       10.0 secs

     total energy              =    -276.29240659 Ry
     estimated scf accuracy    <       7.69306401 Ry

     iteration #  5     ecut=    80.00 Ry     beta= 0.70
     Davidson diagonalization with overlap
     ethr =  1.00E-02,  avg # of iterations =  2.0

     total cpu time spent up to now is       10.7 secs

     total energy              =    -275.89886027 Ry
     estimated scf accuracy    <       9.74857684 Ry

     iteration #  6     ecut=    80.00 Ry     beta= 0.70
     Davidson diagonalization with overlap
     ethr =  1.00E-02,  avg # of iterations =  1.1

     total cpu time spent up to now is       11.3 secs

     total energy              =    -274.85863941 Ry
     estimated scf accuracy    <       7.05630290 Ry

     iteration #  7     ecut=    80.00 Ry     beta= 0.70
     Davidson diagonalization with overlap
     ethr =  1.00E-02,  avg # of iterations =  1.2

     total cpu time spent up to now is       11.9 secs

     total energy              =    -274.46191562 Ry
     estimated scf accuracy    <       4.02985477 Ry

     iteration #  8     ecut=    80.00 Ry     beta= 0.70
     Davidson diagonalization with overlap
     ethr =  9.59E-03,  avg # of iterations =  1.1

     total cpu time spent up to now is       12.6 secs

     total energy              =    -274.51654518 Ry
     estimated scf accuracy    <       2.58939899 Ry

     iteration #  9     ecut=    80.00 Ry     beta= 0.70
     Davidson diagonalization with overlap
     ethr =  6.17E-03,  avg # of iterations =  1.1

     total cpu time spent up to now is       13.2 secs

     total energy              =    -273.38216238 Ry
     estimated scf accuracy    <       2.40829579 Ry

     iteration # 10     ecut=    80.00 Ry     beta= 0.70
     Davidson diagonalization with overlap
     ethr =  5.73E-03,  avg # of iterations =  3.1

     negative rho (up, down):  3.387E-02 0.000E+00

     total cpu time spent up to now is       13.9 secs

     total energy              =    -273.75167753 Ry
     estimated scf accuracy    <       0.04327294 Ry

     iteration # 11     ecut=    80.00 Ry     beta= 0.70
     Davidson diagonalization with overlap
     ethr =  1.03E-04,  avg # of iterations =  9.3

     negative rho (up, down):  3.105E-08 0.000E+00

     total cpu time spent up to now is       15.4 secs

     total energy              =    -273.87328138 Ry
     estimated scf accuracy    <       0.27883009 Ry

     iteration # 12     ecut=    80.00 Ry     beta= 0.70
     Davidson diagonalization with overlap
     ethr =  1.03E-04,  avg # of iterations =  2.7

     negative rho (up, down):  2.377E-03 0.000E+00

     total cpu time spent up to now is       16.1 secs

     total energy              =    -273.88704028 Ry
     estimated scf accuracy    <       0.39344821 Ry

     iteration # 13     ecut=    80.00 Ry     beta= 0.70
     Davidson diagonalization with overlap
     ethr =  1.03E-04,  avg # of iterations =  1.6

     negative rho (up, down):  9.329E-04 0.000E+00

     total cpu time spent up to now is       16.8 secs

     total energy              =    -273.88572518 Ry
     estimated scf accuracy    <       0.43869364 Ry

     iteration # 14     ecut=    80.00 Ry     beta= 0.70
     Davidson diagonalization with overlap
     ethr =  1.03E-04,  avg # of iterations =  1.0

     negative rho (up, down):  7.083E-04 0.000E+00

     total cpu time spent up to now is       17.4 secs

     total energy              =    -273.87352523 Ry
     estimated scf accuracy    <       0.44749862 Ry

     iteration # 15     ecut=    80.00 Ry     beta= 0.70
     Davidson diagonalization with overlap
     ethr =  1.03E-04,  avg # of iterations =  1.0

     negative rho (up, down):  5.598E-04 0.000E+00

     total cpu time spent up to now is       18.0 secs

     total energy              =    -273.86652014 Ry
     estimated scf accuracy    <       0.41128484 Ry

     iteration # 16     ecut=    80.00 Ry     beta= 0.70
     Davidson diagonalization with overlap
     ethr =  1.03E-04,  avg # of iterations =  1.0

     negative rho (up, down):  5.277E-04 0.000E+00

     total cpu time spent up to now is       18.6 secs

     total energy              =    -273.85172065 Ry
     estimated scf accuracy    <       0.38643563 Ry

     iteration # 17     ecut=    80.00 Ry     beta= 0.70
     Davidson diagonalization with overlap
     ethr =  1.03E-04,  avg # of iterations =  1.0

     negative rho (up, down):  4.543E-04 0.000E+00

     total cpu time spent up to now is       19.2 secs

     total energy              =    -273.82078736 Ry
     estimated scf accuracy    <       0.33075074 Ry

     iteration # 18     ecut=    80.00 Ry     beta= 0.70
     Davidson diagonalization with overlap
     ethr =  1.03E-04,  avg # of iterations =  2.0

     total cpu time spent up to now is       19.9 secs

     total energy              =    -273.73720451 Ry
     estimated scf accuracy    <       0.20426687 Ry

     iteration # 19     ecut=    80.00 Ry     beta= 0.70
     Davidson diagonalization with overlap
     ethr =  1.03E-04,  avg # of iterations =  6.4

     total cpu time spent up to now is       21.1 secs

     total energy              =    -273.79379211 Ry
     estimated scf accuracy    <       0.02328421 Ry

     iteration # 20     ecut=    80.00 Ry     beta= 0.70
     Davidson diagonalization with overlap
     ethr =  5.54E-05,  avg # of iterations =  1.0

     negative rho (up, down):  6.770E-06 0.000E+00

     total cpu time spent up to now is       21.7 secs

     total energy              =    -273.78867259 Ry
     estimated scf accuracy    <       0.01672829 Ry

     iteration # 21     ecut=    80.00 Ry     beta= 0.70
     Davidson diagonalization with overlap
     ethr =  3.98E-05,  avg # of iterations =  2.4

     negative rho (up, down):  1.201E-05 0.000E+00

     total cpu time spent up to now is       22.4 secs

     total energy              =    -273.79039168 Ry
     estimated scf accuracy    <       0.00090250 Ry

     iteration # 22     ecut=    80.00 Ry     beta= 0.70
     Davidson diagonalization with overlap
     c_bands:  2 eigenvalues not converged
     c_bands:  1 eigenvalues not converged
     c_bands:  1 eigenvalues not converged
     ethr =  2.15E-06,  avg # of iterations = 13.8

     total cpu time spent up to now is       23.7 secs

     total energy              =    -273.79100546 Ry
     estimated scf accuracy    <       0.00034787 Ry

     iteration # 23     ecut=    80.00 Ry     beta= 0.70
     Davidson diagonalization with overlap
     c_bands:  1 eigenvalues not converged
     ethr =  8.28E-07,  avg # of iterations =  3.9

     total cpu time spent up to now is       24.4 secs

     total energy              =    -273.79094662 Ry
     estimated scf accuracy    <       0.00023195 Ry

     iteration # 24     ecut=    80.00 Ry     beta= 0.70
     Davidson diagonalization with overlap
     ethr =  5.52E-07,  avg # of iterations =  2.1

     total cpu time spent up to now is       25.1 secs

     total energy              =    -273.79095376 Ry
     estimated scf accuracy    <       0.00002973 Ry

     iteration # 25     ecut=    80.00 Ry     beta= 0.70
     Davidson diagonalization with overlap
     ethr =  7.08E-08,  avg # of iterations =  6.2

     total cpu time spent up to now is       26.1 secs

     total energy              =    -273.79096887 Ry
     estimated scf accuracy    <       0.00001419 Ry

     iteration # 26     ecut=    80.00 Ry     beta= 0.70
     Davidson diagonalization with overlap
     ethr =  3.38E-08,  avg # of iterations =  1.7

     total cpu time spent up to now is       26.8 secs

     total energy              =    -273.79096851 Ry
     estimated scf accuracy    <       0.00000398 Ry

     iteration # 27     ecut=    80.00 Ry     beta= 0.70
     Davidson diagonalization with overlap
     ethr =  9.47E-09,  avg # of iterations =  4.7

     total cpu time spent up to now is       27.6 secs

     total energy              =    -273.79096922 Ry
     estimated scf accuracy    <       0.00000012 Ry

     iteration # 28     ecut=    80.00 Ry     beta= 0.70
     Davidson diagonalization with overlap
     ethr =  2.98E-10,  avg # of iterations =  5.8

     total cpu time spent up to now is       28.5 secs

     total energy              =    -273.79096931 Ry
     estimated scf accuracy    <       0.00000001 Ry

     iteration # 29     ecut=    80.00 Ry     beta= 0.70
     Davidson diagonalization with overlap
     ethr =  3.30E-11,  avg # of iterations =  4.4

     total cpu time spent up to now is       29.4 secs

     total energy              =    -273.79096930 Ry
     estimated scf accuracy    <       0.00000003 Ry

     iteration # 30     ecut=    80.00 Ry     beta= 0.70
     Davidson diagonalization with overlap
     ethr =  3.30E-11,  avg # of iterations =  4.9

     total cpu time spent up to now is       30.3 secs

     End of self-consistent calculation

          k = 0.0000 0.0000 0.0000 ( 42769 PWs)   bands (ev):

   -59.7906 -59.6872 -35.0216 -34.9193 -34.8250 -34.6690 -34.6215 -34.2797
   -18.0147 -17.6046 -10.4657  -9.2264  -9.1661  -8.3222  -7.9196  -7.2467
    -6.8883  -6.3526  -6.2824  -1.9099  -1.5195  -1.4776  -0.2263  -0.1789
    -0.1305

          k = 0.0000 0.2802 0.0000 ( 42653 PWs)   bands (ev):

   -59.7777 -59.6939 -34.9585 -34.9492 -34.7992 -34.7251 -34.6676 -34.3486
   -17.8390 -17.5224 -10.3391  -9.3195  -9.0888  -7.9653  -7.9447  -7.0468
    -6.8035  -6.3627  -6.2754  -3.1382  -2.3338  -1.2886  -1.1424  -1.0498
    -0.2812

          k = 0.0000 0.5605 0.0000 ( 42539 PWs)   bands (ev):

   -59.7468 -59.7148 -34.9893 -34.8998 -34.7610 -34.7467 -34.6978 -34.5313
   -17.5420 -17.4314 -10.0432  -9.6755  -8.6472  -7.9116  -7.5103  -7.1476
    -6.1403  -6.0556  -6.0385  -4.8971  -2.9475  -2.0590  -1.5399  -1.0780
    -0.7010

          k = 0.2000 0.0000 0.0000 ( 42691 PWs)   bands (ev):

   -59.7807 -59.6971 -34.9601 -34.8916 -34.8052 -34.6864 -34.6507 -34.3531
   -17.9215 -17.5951 -10.6440  -9.5421  -8.7195  -8.1307  -7.9019  -7.2929
    -7.0490  -6.5039  -5.8525  -2.6902  -2.5677  -1.5375  -1.2940  -0.5225
    -0.4644

          k = 0.2000 0.2802 0.0000 ( 42637 PWs)   bands (ev):

   -59.7696 -59.7020 -35.0287 -34.8043 -34.7836 -34.7829 -34.6813 -34.3712
   -17.7622 -17.5090 -10.6115  -9.7320  -8.5903  -7.8403  -7.7120  -7.1470
    -6.9244  -6.4875  -5.9503  -3.2566  -2.8591  -2.1973  -1.3972  -0.6273
     0.1246

          k = 0.2000 0.5605 0.0000 ( 42542 PWs)   bands (ev):

   -59.7438 -59.7178 -35.0743 -34.9836 -34.7419 -34.7024 -34.6419 -34.4742
   -17.4957 -17.4071 -10.4689 -10.1375  -8.1964  -7.5835  -7.3772  -7.0528
    -6.3692  -6.3068  -5.5675  -4.6216  -3.3270  -2.7428  -1.8320  -0.7217
    -0.4064

          k = 0.4000 0.0000 0.0000 ( 42604 PWs)   bands (ev):

   -59.7549 -59.7230 -34.8188 -34.8184 -34.7340 -34.7296 -34.7264 -34.5375
   -17.7340 -17.6126 -10.6483 -10.2089  -7.8683  -7.8387  -7.7421  -7.4089
    -7.3704  -6.8944  -4.7392  -3.5722  -3.5657  -3.2026  -1.3453  -0.9504
     0.3831

          k = 0.4000 0.2802 0.0000 ( 42614 PWs)   bands (ev):

   -59.7488 -59.7229 -35.0066 -34.9057 -34.7553 -34.7146 -34.6163 -34.4595
   -17.6076 -17.5131 -10.7532 -10.4025  -7.8534  -7.4632  -7.4257  -7.3557
    -7.1236  -6.8919  -5.0715  -4.2018  -3.1574  -3.0994  -1.0562  -1.0500
    -0.0078

          k = 0.4000 0.5605 0.0000 ( 42575 PWs)   bands (ev):

   -59.7358 -59.7259 -35.1383 -35.1005 -34.7295 -34.7144 -34.4922 -34.4312
   -17.4086 -17.3753 -10.8760 -10.7433  -7.6434  -7.4093  -7.1235  -6.9358
    -6.4280  -6.3977  -4.9109  -4.3139  -4.1893  -3.6858  -1.2715  -1.0959
    -0.0994

     the Fermi energy is    -2.8635 ev

!    total energy              =    -273.79096930 Ry
     estimated scf accuracy    <          4.0E-09 Ry
     smearing contrib. (-TS)   =      -0.00177588 Ry
     internal energy E=F+TS    =    -273.78919342 Ry

     The total energy is F=E-TS. E is the sum of the following terms:
     one-electron contribution =   -2744.36402949 Ry
     hartree contribution      =    1366.58392215 Ry
     xc contribution           =     -41.16597927 Ry
     ewald contribution        =    1145.15689318 Ry

     convergence has been achieved in  30 iterations

     Forces acting on atoms (cartesian axes, Ry/au):

     atom    1 type  1   force =     0.00000000    0.00000365    0.00103963
     atom    2 type  1   force =     0.00000000    0.00002452   -0.00097550
     atom    3 type  2   force =     0.00110972   -0.00000813    0.00063972
     atom    4 type  2   force =    -0.00110972   -0.00000813    0.00063972
     atom    5 type  2   force =    -0.00113124   -0.00000596   -0.00067178
     atom    6 type  2   force =     0.00113124   -0.00000596   -0.00067178

     Total force =     0.002963     Total SCF correction =     0.000084

     BFGS Geometry Optimization
     Energy error            =      0.0E+00 Ry
     Gradient error          =      1.1E-03 Ry/Bohr

     number of scf cycles    =   1
     number of bfgs steps    =   0

     energy             new  =    -273.7909693034 Ry

     new trust radius        =       0.0013156887 bohr
     new conv_thr            =       0.0000000100 Ry


ATOMIC_POSITIONS (alat)
Nb            0.5000000000       -0.0022772805        0.2155701200
Nb            0.0000000000        0.3545602800        0.2510962053
C             1.1379906010       -0.0022995750        0.0061298648
C             1.8620093990       -0.0022995750        0.0061298642
C             1.3620075633        0.3545854946        0.4605369722
C             1.6379924367        0.3545854946        0.4605369739



     Writing output data file /home/fernando/serse/temp/NB.save/
     NEW-OLD atomic charge density approx. for the potential

     total cpu time spent up to now is       31.0 secs

     Self-consistent Calculation

     iteration #  1     ecut=    80.00 Ry     beta= 0.70
     Davidson diagonalization with overlap
     ethr =  1.00E-06,  avg # of iterations =  3.0

     total cpu time spent up to now is       31.9 secs

     total energy              =    -273.79094575 Ry
     estimated scf accuracy    <       0.00009524 Ry

     iteration #  2     ecut=    80.00 Ry     beta= 0.70
     Davidson diagonalization with overlap
     ethr =  2.27E-07,  avg # of iterations =  2.0

     total cpu time spent up to now is       32.7 secs

     total energy              =    -273.79096664 Ry
     estimated scf accuracy    <       0.00001925 Ry

     iteration #  3     ecut=    80.00 Ry     beta= 0.70
     Davidson diagonalization with overlap
     ethr =  4.58E-08,  avg # of iterations =  5.0

     total cpu time spent up to now is       33.6 secs

     total energy              =    -273.79096456 Ry
     estimated scf accuracy    <       0.00007461 Ry

     iteration #  4     ecut=    80.00 Ry     beta= 0.70
     Davidson diagonalization with overlap
     ethr =  4.58E-08,  avg # of iterations =  4.8

     total cpu time spent up to now is       34.4 secs

     total energy              =    -273.79097398 Ry
     estimated scf accuracy    <       0.00000052 Ry

     iteration #  5     ecut=    80.00 Ry     beta= 0.70
     Davidson diagonalization with overlap
     ethr =  1.23E-09,  avg # of iterations =  5.3

     total cpu time spent up to now is       35.4 secs

     total energy              =    -273.79097421 Ry
     estimated scf accuracy    <       0.00000079 Ry

     iteration #  6     ecut=    80.00 Ry     beta= 0.70
     Davidson diagonalization with overlap
     ethr =  1.23E-09,  avg # of iterations =  2.7

     total cpu time spent up to now is       36.2 secs

     total energy              =    -273.79097429 Ry
     estimated scf accuracy    <       0.00000015 Ry

     iteration #  7     ecut=    80.00 Ry     beta= 0.70
     Davidson diagonalization with overlap
     ethr =  3.67E-10,  avg # of iterations =  3.4

     total cpu time spent up to now is       37.0 secs

     total energy              =    -273.79097431 Ry
     estimated scf accuracy    <       0.00000004 Ry

     iteration #  8     ecut=    80.00 Ry     beta= 0.70
     Davidson diagonalization with overlap
     ethr =  9.30E-11,  avg # of iterations =  4.4

     total cpu time spent up to now is       37.8 secs

     End of self-consistent calculation

          k = 0.0000 0.0000 0.0000 ( 42769 PWs)   bands (ev):

   -59.7912 -59.6877 -35.0227 -34.9202 -34.8257 -34.6696 -34.6222 -34.2805
   -18.0091 -17.5977 -10.4700  -9.2243  -9.1697  -8.3200  -7.9179  -7.2473
    -6.8846  -6.3523  -6.2880  -1.9105  -1.5174  -1.4744  -0.2216  -0.1875
    -0.1393

          k = 0.0000 0.2802 0.0000 ( 42653 PWs)   bands (ev):

   -59.7783 -59.6945 -34.9595 -34.9504 -34.8000 -34.7258 -34.6683 -34.3494
   -17.8328 -17.5153 -10.3436  -9.3234  -9.0877  -7.9628  -7.9417  -7.0435
    -6.8039  -6.3675  -6.2748  -3.1399  -2.3306  -1.2853  -1.1438  -1.0570
    -0.2781

          k = 0.0000 0.5605 0.0000 ( 42539 PWs)   bands (ev):

   -59.7474 -59.7154 -34.9902 -34.9007 -34.7620 -34.7474 -34.6985 -34.5322
   -17.5349 -17.4240 -10.0481  -9.6802  -8.6467  -7.9097  -7.5060  -7.1435
    -6.1399  -6.0589  -6.0376  -4.8995  -2.9465  -2.0570  -1.5415  -1.0841
    -0.7011

          k = 0.2000 0.0000 0.0000 ( 42691 PWs)   bands (ev):

   -59.7813 -59.6977 -34.9612 -34.8925 -34.8060 -34.6870 -34.6514 -34.3539
   -17.9157 -17.5882 -10.6474  -9.5455  -8.7183  -8.1285  -7.9001  -7.2934
    -7.0455  -6.5041  -5.8581  -2.6919  -2.5687  -1.5442  -1.2934  -0.5179
    -0.4614

          k = 0.2000 0.2802 0.0000 ( 42637 PWs)   bands (ev):

   -59.7703 -59.7025 -35.0297 -34.8052 -34.7845 -34.7837 -34.6820 -34.3720
   -17.7558 -17.5019 -10.6152  -9.7357  -8.5901  -7.8370  -7.7095  -7.1437
    -6.9250  -6.4876  -5.9548  -3.2580  -2.8618  -2.1980  -1.3961  -0.6240
     0.1211

          k = 0.2000 0.5605 0.0000 ( 42542 PWs)   bands (ev):

   -59.7444 -59.7184 -35.0753 -34.9846 -34.7426 -34.7031 -34.6428 -34.4750
   -17.4886 -17.3996 -10.4732 -10.1418  -8.1960  -7.5815  -7.3733  -7.0491
    -6.3691  -6.3063  -5.5703  -4.6239  -3.3283  -2.7428  -1.8328  -0.7231
    -0.4074

          k = 0.4000 0.0000 0.0000 ( 42604 PWs)   bands (ev):

   -59.7555 -59.7236 -34.8196 -34.8192 -34.7346 -34.7306 -34.7271 -34.5385
   -17.7276 -17.6058 -10.6515 -10.2123  -7.8663  -7.8364  -7.7399  -7.4061
    -7.3716  -6.8952  -4.7451  -3.5756  -3.5682  -3.2091  -1.3413  -0.9453
     0.3854

          k = 0.4000 0.2802 0.0000 ( 42614 PWs)   bands (ev):

   -59.7494 -59.7235 -35.0076 -34.9066 -34.7560 -34.7153 -34.6173 -34.4604
   -17.6009 -17.5060 -10.7568 -10.4062  -7.8523  -7.4602  -7.4236  -7.3522
    -7.1242  -6.8927  -5.0757  -4.2057  -3.1597  -3.1023  -1.0561  -1.0471
    -0.0058

          k = 0.4000 0.5605 0.0000 ( 42575 PWs)   bands (ev):

   -59.7364 -59.7265 -35.1393 -35.1016 -34.7302 -34.7151 -34.4931 -34.4320
   -17.4012 -17.3677 -10.8802 -10.7475  -7.6412  -7.4059  -7.1229  -6.9360
    -6.4247  -6.3948  -4.9142  -4.3172  -4.1915  -3.6876  -1.2724  -1.0976
    -0.1001

     the Fermi energy is    -2.8649 ev

!    total energy              =    -273.79097431 Ry
     estimated scf accuracy    <          6.8E-09 Ry
     smearing contrib. (-TS)   =      -0.00177418 Ry
     internal energy E=F+TS    =    -273.78920013 Ry

     The total energy is F=E-TS. E is the sum of the following terms:
     one-electron contribution =   -2744.47759833 Ry
     hartree contribution      =    1366.64129342 Ry
     xc contribution           =     -41.16519449 Ry
     ewald contribution        =    1145.21229926 Ry

     convergence has been achieved in   8 iterations

     Forces acting on atoms (cartesian axes, Ry/au):

     atom    1 type  1   force =     0.00000000    0.00000159    0.00116986
     atom    2 type  1   force =     0.00000000    0.00001041   -0.00090404
     atom    3 type  2   force =    -0.00048239   -0.00000320    0.00047579
     atom    4 type  2   force =     0.00048239   -0.00000320    0.00047579
     atom    5 type  2   force =     0.00049610   -0.00000281   -0.00060870
     atom    6 type  2   force =    -0.00049610   -0.00000281   -0.00060870

     Total force =     0.002083     Total SCF correction =     0.000104
     Energy error            =      5.0E-06 Ry
     Gradient error          =      1.2E-03 Ry/Bohr

     number of scf cycles    =   2
     number of bfgs steps    =   1

     energy             old  =    -273.7909693034 Ry
     energy             new  =    -273.7909743137 Ry

     CASE: energy            _new < energy            _old

     new trust radius        =       0.0020599699 bohr
     new conv_thr            =            1.0E-10 Ry


ATOMIC_POSITIONS (alat)
Nb            0.5000000000       -0.0022768258        0.2157898966
Nb            0.0000000000        0.3545633031        0.2509143427
C             1.1380074579       -0.0023005448        0.0062344037
C             1.8619925421       -0.0023005448        0.0062344031
C             1.3619909262        0.3545847255        0.4604134763
C             1.6380090738        0.3545847255        0.4604134780



     Writing output data file /home/fernando/serse/temp/NB.save/
     NEW-OLD atomic charge density approx. for the potential

     total cpu time spent up to now is       38.5 secs

     Self-consistent Calculation

     iteration #  1     ecut=    80.00 Ry     beta= 0.70
     Davidson diagonalization with overlap
     ethr =  1.00E-06,  avg # of iterations =  4.4

     total cpu time spent up to now is       39.5 secs

     total energy              =    -273.79083917 Ry
     estimated scf accuracy    <       0.00040474 Ry

     iteration #  2     ecut=    80.00 Ry     beta= 0.70
     Davidson diagonalization with overlap
     ethr =  9.64E-07,  avg # of iterations =  3.1

     total cpu time spent up to now is       40.3 secs

     total energy              =    -273.79081663 Ry
     estimated scf accuracy    <       0.00047566 Ry

     iteration #  3     ecut=    80.00 Ry     beta= 0.70
     Davidson diagonalization with overlap
     ethr =  9.64E-07,  avg # of iterations =  5.4

     total cpu time spent up to now is       41.2 secs

     total energy              =    -273.79089315 Ry
     estimated scf accuracy    <       0.00073876 Ry

     iteration #  4     ecut=    80.00 Ry     beta= 0.70
     Davidson diagonalization with overlap
     ethr =  9.64E-07,  avg # of iterations =  4.0

     total cpu time spent up to now is       42.0 secs

     total energy              =    -273.79096991 Ry
     estimated scf accuracy    <       0.00001027 Ry

     iteration #  5     ecut=    80.00 Ry     beta= 0.70
     Davidson diagonalization with overlap
     ethr =  2.44E-08,  avg # of iterations =  7.3

     total cpu time spent up to now is       43.0 secs

     total energy              =    -273.79097865 Ry
     estimated scf accuracy    <       0.00000878 Ry

     iteration #  6     ecut=    80.00 Ry     beta= 0.70
     Davidson diagonalization with overlap
     ethr =  2.09E-08,  avg # of iterations =  1.6

     total cpu time spent up to now is       43.7 secs

     total energy              =    -273.79097852 Ry
     estimated scf accuracy    <       0.00000409 Ry

     iteration #  7     ecut=    80.00 Ry     beta= 0.70
     Davidson diagonalization with overlap
     ethr =  9.75E-09,  avg # of iterations =  1.6

     total cpu time spent up to now is       44.3 secs

     total energy              =    -273.79097844 Ry
     estimated scf accuracy    <       0.00000135 Ry

     iteration #  8     ecut=    80.00 Ry     beta= 0.70
     Davidson diagonalization with overlap
     ethr =  3.22E-09,  avg # of iterations =  4.6

     total cpu time spent up to now is       45.1 secs

     total energy              =    -273.79097862 Ry
     estimated scf accuracy    <       0.00000006 Ry

     iteration #  9     ecut=    80.00 Ry     beta= 0.70
     Davidson diagonalization with overlap
     ethr =  1.46E-10,  avg # of iterations =  5.8

     total cpu time spent up to now is       46.1 secs

     total energy              =    -273.79097865 Ry
     estimated scf accuracy    <       0.00000005 Ry

     iteration # 10     ecut=    80.00 Ry     beta= 0.70
     Davidson diagonalization with overlap
     ethr =  1.22E-10,  avg # of iterations =  1.4

     total cpu time spent up to now is       46.7 secs

     total energy              =    -273.79097865 Ry
     estimated scf accuracy    <       0.00000001 Ry

     iteration # 11     ecut=    80.00 Ry     beta= 0.70
     Davidson diagonalization with overlap
     ethr =  2.67E-11,  avg # of iterations =  5.1

     total cpu time spent up to now is       47.6 secs

     total energy              =    -273.79097866 Ry
     estimated scf accuracy    <          7.8E-10 Ry

     iteration # 12     ecut=    80.00 Ry     beta= 0.70
     Davidson diagonalization with overlap
     ethr =  1.85E-12,  avg # of iterations =  4.4

     total cpu time spent up to now is       48.4 secs

     total energy              =    -273.79097866 Ry
     estimated scf accuracy    <          1.1E-10 Ry

     iteration # 13     ecut=    80.00 Ry     beta= 0.70
     Davidson diagonalization with overlap
     ethr =  2.72E-13,  avg # of iterations =  5.0

     total cpu time spent up to now is       49.3 secs

     End of self-consistent calculation

          k = 0.0000 0.0000 0.0000 ( 42769 PWs)   bands (ev):

   -59.7906 -59.6870 -35.0222 -34.9204 -34.8254 -34.6691 -34.6222 -34.2794
   -18.0099 -17.5984 -10.4711  -9.2245  -9.1706  -8.3205  -7.9201  -7.2497
    -6.8862  -6.3514  -6.2921  -1.9048  -1.5143  -1.4678  -0.2141  -0.1933
    -0.1485

          k = 0.0000 0.2802 0.0000 ( 42653 PWs)   bands (ev):

   -59.7776 -59.6938 -34.9597 -34.9498 -34.7996 -34.7257 -34.6679 -34.3484
   -17.8331 -17.5154 -10.3454  -9.3251  -9.0891  -7.9629  -7.9412  -7.0448
    -6.8065  -6.3701  -6.2740  -3.1357  -2.3247  -1.2829  -1.1456  -1.0628
    -0.2714

          k = 0.0000 0.5605 0.0000 ( 42539 PWs)   bands (ev):

   -59.7468 -59.7148 -34.9906 -34.9009 -34.7614 -34.7470 -34.6981 -34.5314
   -17.5343 -17.4233 -10.0511  -9.6831  -8.6480  -7.9090  -7.5034  -7.1427
    -6.1410  -6.0587  -6.0373  -4.8969  -2.9460  -2.0561  -1.5439  -1.0881
    -0.7033

          k = 0.2000 0.0000 0.0000 ( 42691 PWs)   bands (ev):

   -59.7807 -59.6970 -34.9606 -34.8926 -34.8057 -34.6865 -34.6514 -34.3529
   -17.9166 -17.5889 -10.6478  -9.5460  -8.7194  -8.1294  -7.9021  -7.2955
    -7.0470  -6.5035  -5.8627  -2.6886  -2.5672  -1.5503  -1.2917  -0.5103
    -0.4554

          k = 0.2000 0.2802 0.0000 ( 42637 PWs)   bands (ev):

   -59.7696 -59.7019 -35.0297 -34.8048 -34.7842 -34.7837 -34.6816 -34.3711
   -17.7561 -17.5021 -10.6165  -9.7369  -8.5920  -7.8363  -7.7101  -7.1446
    -6.9274  -6.4869  -5.9578  -3.2543  -2.8636  -2.1968  -1.3926  -0.6178
     0.1200

          k = 0.2000 0.5605 0.0000 ( 42542 PWs)   bands (ev):

   -59.7437 -59.7178 -35.0756 -34.9848 -34.7422 -34.7027 -34.6422 -34.4742
   -17.4880 -17.3990 -10.4756 -10.1441  -8.1970  -7.5809  -7.3713  -7.0485
    -6.3698  -6.3059  -5.5708  -4.6224  -3.3288  -2.7421  -1.8337  -0.7244
    -0.4085

          k = 0.4000 0.0000 0.0000 ( 42604 PWs)   bands (ev):

   -59.7549 -59.7229 -34.8193 -34.8187 -34.7340 -34.7304 -34.7272 -34.5378
   -17.7285 -17.6066 -10.6513 -10.2122  -7.8681  -7.8375  -7.7414  -7.4074
    -7.3729  -6.8959  -4.7507  -3.5746  -3.5672  -3.2155  -1.3350  -0.9379
     0.3888

          k = 0.4000 0.2802 0.0000 ( 42614 PWs)   bands (ev):

   -59.7487 -59.7229 -35.0076 -34.9066 -34.7556 -34.7149 -34.6168 -34.4597
   -17.6012 -17.5063 -10.7576 -10.4070  -7.8535  -7.4602  -7.4259  -7.3513
    -7.1260  -6.8933  -5.0787  -4.2074  -3.1587  -3.1018  -1.0538  -1.0418
    -0.0037

          k = 0.4000 0.5605 0.0000 ( 42575 PWs)   bands (ev):

   -59.7357 -59.7258 -35.1395 -35.1018 -34.7298 -34.7147 -34.4925 -34.4313
   -17.4008 -17.3673 -10.8822 -10.7494  -7.6407  -7.4052  -7.1228  -6.9360
    -6.4241  -6.3945  -4.9152  -4.3178  -4.1912  -3.6871  -1.2731  -1.0982
    -0.1019

     the Fermi energy is    -2.8653 ev

!    total energy              =    -273.79097866 Ry
     estimated scf accuracy    <          1.4E-11 Ry
     smearing contrib. (-TS)   =      -0.00176709 Ry
     internal energy E=F+TS    =    -273.78921156 Ry

     The total energy is F=E-TS. E is the sum of the following terms:
     one-electron contribution =   -2744.69771500 Ry
     hartree contribution      =    1366.75130908 Ry
     xc contribution           =     -41.16637448 Ry
     ewald contribution        =    1145.32356883 Ry

     convergence has been achieved in  13 iterations

     Forces acting on atoms (cartesian axes, Ry/au):

     atom    1 type  1   force =     0.00000000   -0.00000164    0.00033350
     atom    2 type  1   force =     0.00000000   -0.00000448   -0.00049233
     atom    3 type  2   force =    -0.00041320    0.00000227    0.00040037
     atom    4 type  2   force =     0.00041320    0.00000227    0.00040037
     atom    5 type  2   force =     0.00040791    0.00000079   -0.00032095
     atom    6 type  2   force =    -0.00040791    0.00000079   -0.00032095

     Total force =     0.001247     Total SCF correction =     0.000004
     Energy error            =      4.3E-06 Ry
     Gradient error          =      4.9E-04 Ry/Bohr

     number of scf cycles    =   3
     number of bfgs steps    =   2

     energy             old  =    -273.7909743137 Ry
     energy             new  =    -273.7909786558 Ry

     CASE: energy            _new < energy            _old

     new trust radius        =       0.0016980394 bohr
     new conv_thr            =            1.0E-10 Ry


ATOMIC_POSITIONS (alat)
Nb            0.5000000000       -0.0022768683        0.2159474110
Nb            0.0000000000        0.3545643201        0.2507331827
C             1.1379987468       -0.0023007221        0.0063671772
C             1.8620012532       -0.0023007221        0.0063671766
C             1.3619971995        0.3545844156        0.4602925256
C             1.6380028005        0.3545844156        0.4602925273



     Writing output data file /home/fernando/serse/temp/NB.save/
     NEW-OLD atomic charge density approx. for the potential

     total cpu time spent up to now is       50.0 secs

     Self-consistent Calculation

     iteration #  1     ecut=    80.00 Ry     beta= 0.70
     Davidson diagonalization with overlap
     ethr =  1.00E-06,  avg # of iterations =  3.9

     total cpu time spent up to now is       50.9 secs

     total energy              =    -273.79088897 Ry
     estimated scf accuracy    <       0.00027598 Ry

     iteration #  2     ecut=    80.00 Ry     beta= 0.70
     Davidson diagonalization with overlap
     ethr =  6.57E-07,  avg # of iterations =  2.0

     total cpu time spent up to now is       51.7 secs

     total energy              =    -273.79090565 Ry
     estimated scf accuracy    <       0.00019766 Ry

     iteration #  3     ecut=    80.00 Ry     beta= 0.70
     Davidson diagonalization with overlap
     ethr =  4.71E-07,  avg # of iterations =  4.8

     total cpu time spent up to now is       52.6 secs

     total energy              =    -273.79092306 Ry
     estimated scf accuracy    <       0.00048151 Ry

     iteration #  4     ecut=    80.00 Ry     beta= 0.70
     Davidson diagonalization with overlap
     ethr =  4.71E-07,  avg # of iterations =  4.1

     total cpu time spent up to now is       53.4 secs

     total energy              =    -273.79097692 Ry
     estimated scf accuracy    <       0.00000283 Ry

     iteration #  5     ecut=    80.00 Ry     beta= 0.70
     Davidson diagonalization with overlap
     ethr =  6.73E-09,  avg # of iterations =  6.2

     total cpu time spent up to now is       54.5 secs

     total energy              =    -273.79098008 Ry
     estimated scf accuracy    <       0.00000529 Ry

     iteration #  6     ecut=    80.00 Ry     beta= 0.70
     Davidson diagonalization with overlap
     ethr =  6.73E-09,  avg # of iterations =  2.3

     total cpu time spent up to now is       55.2 secs

     total energy              =    -273.79098021 Ry
     estimated scf accuracy    <       0.00000191 Ry

     iteration #  7     ecut=    80.00 Ry     beta= 0.70
     Davidson diagonalization with overlap
     ethr =  4.54E-09,  avg # of iterations =  1.7

     total cpu time spent up to now is       55.9 secs

     total energy              =    -273.79098020 Ry
     estimated scf accuracy    <       0.00000054 Ry

     iteration #  8     ecut=    80.00 Ry     beta= 0.70
     Davidson diagonalization with overlap
     ethr =  1.29E-09,  avg # of iterations =  5.0

     total cpu time spent up to now is       56.7 secs

     total energy              =    -273.79098031 Ry
     estimated scf accuracy    <       0.00000003 Ry

     iteration #  9     ecut=    80.00 Ry     beta= 0.70
     Davidson diagonalization with overlap
     ethr =  6.36E-11,  avg # of iterations =  4.9

     total cpu time spent up to now is       57.6 secs

     total energy              =    -273.79098032 Ry
     estimated scf accuracy    <       0.00000002 Ry

     iteration # 10     ecut=    80.00 Ry     beta= 0.70
     Davidson diagonalization with overlap
     ethr =  3.85E-11,  avg # of iterations =  2.0

     total cpu time spent up to now is       58.3 secs

     total energy              =    -273.79098032 Ry
     estimated scf accuracy    <          2.7E-09 Ry

     iteration # 11     ecut=    80.00 Ry     beta= 0.70
     Davidson diagonalization with overlap
     ethr =  6.40E-12,  avg # of iterations =  5.0

     total cpu time spent up to now is       59.1 secs

     End of self-consistent calculation

          k = 0.0000 0.0000 0.0000 ( 42769 PWs)   bands (ev):

   -59.7899 -59.6863 -35.0217 -34.9205 -34.8250 -34.6686 -34.6221 -34.2784
   -18.0121 -17.6005 -10.4715  -9.2254  -9.1708  -8.3217  -7.9230  -7.2522
    -6.8888  -6.3505  -6.2957  -1.8997  -1.5117  -1.4621  -0.2066  -0.1968
    -0.1557

          k = 0.0000 0.2802 0.0000 ( 42653 PWs)   bands (ev):

   -59.7770 -59.6931 -34.9599 -34.9492 -34.7992 -34.7256 -34.6675 -34.3474
   -17.8347 -17.5170 -10.3463  -9.3260  -9.0911  -7.9635  -7.9415  -7.0470
    -6.8094  -6.3725  -6.2734  -3.1317  -2.3192  -1.2807  -1.1473  -1.0668
    -0.2652

          k = 0.0000 0.5605 0.0000 ( 42539 PWs)   bands (ev):

   -59.7461 -59.7141 -34.9909 -34.9012 -34.7606 -34.7465 -34.6976 -34.5305
   -17.5352 -17.4242 -10.0532  -9.6851  -8.6497  -7.9088  -7.5018  -7.1430
    -6.1424  -6.0583  -6.0373  -4.8943  -2.9457  -2.0553  -1.5461  -1.0903
    -0.7057

          k = 0.2000 0.0000 0.0000 ( 42691 PWs)   bands (ev):

   -59.7800 -59.6963 -34.9600 -34.8927 -34.8053 -34.6859 -34.6513 -34.3520
   -17.9187 -17.5911 -10.6477  -9.5460  -8.7208  -8.1308  -7.9046  -7.2977
    -7.0494  -6.5029  -5.8667  -2.6854  -2.5656  -1.5551  -1.2896  -0.5031
    -0.4503

          k = 0.2000 0.2802 0.0000 ( 42637 PWs)   bands (ev):

   -59.7690 -59.7012 -35.0296 -34.8043 -34.7839 -34.7836 -34.6811 -34.3702
   -17.7578 -17.5038 -10.6172  -9.7375  -8.5940  -7.8363  -7.7114  -7.1464
    -6.9301  -6.4864  -5.9603  -3.2506  -2.8646  -2.1953  -1.3896  -0.6121
     0.1198

          k = 0.2000 0.5605 0.0000 ( 42542 PWs)   bands (ev):

   -59.7430 -59.7171 -35.0758 -34.9850 -34.7417 -34.7022 -34.6416 -34.4735
   -17.4889 -17.3999 -10.4775 -10.1458  -8.1981  -7.5808  -7.3701  -7.0487
    -6.3709  -6.3058  -5.5711  -4.6207  -3.3287  -2.7410  -1.8347  -0.7254
    -0.4093

          k = 0.4000 0.0000 0.0000 ( 42604 PWs)   bands (ev):

   -59.7542 -59.7222 -34.8193 -34.8179 -34.7334 -34.7301 -34.7271 -34.5371
   -17.7307 -17.6088 -10.6508 -10.2118  -7.8702  -7.8392  -7.7436  -7.4095
    -7.3743  -6.8965  -4.7555  -3.5732  -3.5657  -3.2209  -1.3290  -0.9309
     0.3918

          k = 0.4000 0.2802 0.0000 ( 42614 PWs)   bands (ev):

   -59.7480 -59.7222 -35.0075 -34.9065 -34.7551 -34.7144 -34.6163 -34.4590
   -17.6030 -17.5080 -10.7581 -10.4074  -7.8552  -7.4607  -7.4290  -7.3512
    -7.1282  -6.8937  -5.0810  -4.2084  -3.1573  -3.1006  -1.0513  -1.0369
    -0.0021

          k = 0.4000 0.5605 0.0000 ( 42575 PWs)   bands (ev):

   -59.7350 -59.7251 -35.1397 -35.1019 -34.7293 -34.7142 -34.4918 -34.4305
   -17.4018 -17.3683 -10.8838 -10.7509  -7.6408  -7.4053  -7.1229  -6.9360
    -6.4243  -6.3949  -4.9157  -4.3176  -4.1904  -3.6860  -1.2736  -1.0983
    -0.1035

     the Fermi energy is    -2.8653 ev

!    total energy              =    -273.79098032 Ry
     estimated scf accuracy    <          6.8E-11 Ry
     smearing contrib. (-TS)   =      -0.00175993 Ry
     internal energy E=F+TS    =    -273.78922039 Ry

     The total energy is F=E-TS. E is the sum of the following terms:
     one-electron contribution =   -2744.93407643 Ry
     hartree contribution      =    1366.87018005 Ry
     xc contribution           =     -41.16803391 Ry
     ewald contribution        =    1145.44270991 Ry

     convergence has been achieved in  11 iterations

     Forces acting on atoms (cartesian axes, Ry/au):

     atom    1 type  1   force =     0.00000000   -0.00000157   -0.00019368
     atom    2 type  1   force =     0.00000000   -0.00000980    0.00016206
     atom    3 type  2   force =     0.00000866    0.00000395    0.00015632
     atom    4 type  2   force =    -0.00000866    0.00000395    0.00015632
     atom    5 type  2   force =     0.00003025    0.00000174   -0.00014051
     atom    6 type  2   force =    -0.00003025    0.00000174   -0.00014051

     Total force =     0.000393     Total SCF correction =     0.000012
     Energy error            =      1.7E-06 Ry
     Gradient error          =      1.9E-04 Ry/Bohr

     number of scf cycles    =   4
     number of bfgs steps    =   3

     energy             old  =    -273.7909786558 Ry
     energy             new  =    -273.7909803184 Ry

     CASE: energy            _new < energy            _old

     new trust radius        =       0.0002448057 bohr
     new conv_thr            =            1.0E-10 Ry


ATOMIC_POSITIONS (alat)
Nb            0.5000000000       -0.0022770322        0.2159389313
Nb            0.0000000000        0.3545633529        0.2507383487
C             1.1379994243       -0.0023003158        0.0063932835
C             1.8620005757       -0.0023003158        0.0063932829
C             1.3620007923        0.3545845748        0.4602680762
C             1.6379992077        0.3545845748        0.4602680779



     Writing output data file /home/fernando/serse/temp/NB.save/
     NEW-OLD atomic charge density approx. for the potential

     total cpu time spent up to now is       59.9 secs

     Self-consistent Calculation

     iteration #  1     ecut=    80.00 Ry     beta= 0.70
     Davidson diagonalization with overlap
     ethr =  1.00E-06,  avg # of iterations =  1.1

     Threshold (ethr) on eigenvalues was too large:
     Diagonalizing with lowered threshold

     Davidson diagonalization with overlap
     ethr =  1.07E-09,  avg # of iterations =  3.4

     total cpu time spent up to now is       61.3 secs

     total energy              =    -273.79098011 Ry
     estimated scf accuracy    <       0.00000074 Ry

     iteration #  2     ecut=    80.00 Ry     beta= 0.70
     Davidson diagonalization with overlap
     ethr =  1.77E-09,  avg # of iterations =  5.6

     total cpu time spent up to now is       62.3 secs

     total energy              =    -273.79097962 Ry
     estimated scf accuracy    <       0.00000509 Ry

     iteration #  3     ecut=    80.00 Ry     beta= 0.70
     Davidson diagonalization with overlap
     ethr =  1.77E-09,  avg # of iterations =  5.3

     total cpu time spent up to now is       63.3 secs

     total energy              =    -273.79098040 Ry
     estimated scf accuracy    <       0.00000040 Ry

     iteration #  4     ecut=    80.00 Ry     beta= 0.70
     Davidson diagonalization with overlap
     ethr =  9.57E-10,  avg # of iterations =  2.4

     total cpu time spent up to now is       63.9 secs

     total energy              =    -273.79098045 Ry
     estimated scf accuracy    <       0.00000003 Ry

     iteration #  5     ecut=    80.00 Ry     beta= 0.70
     Davidson diagonalization with overlap
     ethr =  8.02E-11,  avg # of iterations =  4.9

     total cpu time spent up to now is       64.8 secs

     total energy              =    -273.79098046 Ry
     estimated scf accuracy    <          2.1E-09 Ry

     iteration #  6     ecut=    80.00 Ry     beta= 0.70
     Davidson diagonalization with overlap
     ethr =  5.00E-12,  avg # of iterations =  5.3

     total cpu time spent up to now is       65.7 secs

     total energy              =    -273.79098046 Ry
     estimated scf accuracy    <          2.6E-09 Ry

     iteration #  7     ecut=    80.00 Ry     beta= 0.70
     Davidson diagonalization with overlap
     ethr =  5.00E-12,  avg # of iterations =  2.6

     total cpu time spent up to now is       66.5 secs

     total energy              =    -273.79098046 Ry
     estimated scf accuracy    <          1.4E-10 Ry

     iteration #  8     ecut=    80.00 Ry     beta= 0.70
     Davidson diagonalization with overlap
     ethr =  3.41E-13,  avg # of iterations =  5.8

     total cpu time spent up to now is       67.4 secs

     End of self-consistent calculation

          k = 0.0000 0.0000 0.0000 ( 42769 PWs)   bands (ev):

   -59.7897 -59.6861 -35.0216 -34.9203 -34.8248 -34.6684 -34.6219 -34.2783
   -18.0123 -17.6006 -10.4714  -9.2256  -9.1707  -8.3219  -7.9232  -7.2524
    -6.8890  -6.3504  -6.2961  -1.9000  -1.5116  -1.4621  -0.2059  -0.1963
    -0.1556

          k = 0.0000 0.2802 0.0000 ( 42653 PWs)   bands (ev):

   -59.7768 -59.6929 -34.9598 -34.9491 -34.7990 -34.7255 -34.6673 -34.3473
   -17.8349 -17.5172 -10.3463  -9.3260  -9.0913  -7.9637  -7.9415  -7.0472
    -6.8096  -6.3728  -6.2734  -3.1320  -2.3189  -1.2802  -1.1473  -1.0665
    -0.2648

          k = 0.0000 0.5605 0.0000 ( 42539 PWs)   bands (ev):

   -59.7459 -59.7138 -34.9908 -34.9010 -34.7605 -34.7463 -34.6974 -34.5304
   -17.5353 -17.4243 -10.0531  -9.6851  -8.6499  -7.9089  -7.5018  -7.1431
    -6.1426  -6.0586  -6.0373  -4.8946  -2.9455  -2.0548  -1.5462  -1.0898
    -0.7058

          k = 0.2000 0.0000 0.0000 ( 42691 PWs)   bands (ev):

   -59.7798 -59.6961 -34.9599 -34.8926 -34.8052 -34.6857 -34.6512 -34.3518
   -17.9189 -17.5912 -10.6477  -9.5460  -8.7209  -8.1309  -7.9048  -7.2980
    -7.0496  -6.5028  -5.8670  -2.6855  -2.5656  -1.5551  -1.2890  -0.5024
    -0.4504

          k = 0.2000 0.2802 0.0000 ( 42637 PWs)   bands (ev):

   -59.7688 -59.7009 -35.0295 -34.8042 -34.7837 -34.7835 -34.6810 -34.3700
   -17.7580 -17.5039 -10.6173  -9.7376  -8.5941  -7.8364  -7.7115  -7.1465
    -6.9304  -6.4864  -5.9606  -3.2506  -2.8643  -2.1950  -1.3896  -0.6116
     0.1202

          k = 0.2000 0.5605 0.0000 ( 42542 PWs)   bands (ev):

   -59.7428 -59.7169 -35.0757 -34.9848 -34.7415 -34.7020 -34.6415 -34.4733
   -17.4890 -17.4000 -10.4777 -10.1460  -8.1982  -7.5808  -7.3701  -7.0488
    -6.3711  -6.3059  -5.5713  -4.6208  -3.3284  -2.7406  -1.8348  -0.7252
    -0.4092

          k = 0.4000 0.0000 0.0000 ( 42604 PWs)   bands (ev):

   -59.7540 -59.7220 -34.8192 -34.8178 -34.7332 -34.7299 -34.7270 -34.5369
   -17.7309 -17.6090 -10.6510 -10.2120  -7.8701  -7.8394  -7.7438  -7.4098
    -7.3746  -6.8964  -4.7558  -3.5732  -3.5656  -3.2210  -1.3284  -0.9303
     0.3920

          k = 0.4000 0.2802 0.0000 ( 42614 PWs)   bands (ev):

   -59.7478 -59.7220 -35.0074 -34.9064 -34.7549 -34.7143 -34.6162 -34.4588
   -17.6031 -17.5082 -10.7583 -10.4076  -7.8553  -7.4606  -7.4292  -7.3513
    -7.1285  -6.8937  -5.0811  -4.2083  -3.1572  -3.1005  -1.0510  -1.0364
    -0.0020

          k = 0.4000 0.5605 0.0000 ( 42575 PWs)   bands (ev):

   -59.7348 -59.7249 -35.1396 -35.1018 -34.7291 -34.7140 -34.4917 -34.4304
   -17.4019 -17.3684 -10.8841 -10.7512  -7.6409  -7.4054  -7.1229  -6.9360
    -6.4244  -6.3951  -4.9157  -4.3174  -4.1903  -3.6857  -1.2736  -1.0981
    -0.1040

     the Fermi energy is    -2.8651 ev

!    total energy              =    -273.79098046 Ry
     estimated scf accuracy    <          5.7E-11 Ry
     smearing contrib. (-TS)   =      -0.00175911 Ry
     internal energy E=F+TS    =    -273.78922134 Ry

     The total energy is F=E-TS. E is the sum of the following terms:
     one-electron contribution =   -2744.97067809 Ry
     hartree contribution      =    1366.88863830 Ry
     xc contribution           =     -41.16832430 Ry
     ewald contribution        =    1145.46114276 Ry

     convergence has been achieved in   8 iterations

     Forces acting on atoms (cartesian axes, Ry/au):

     atom    1 type  1   force =     0.00000000   -0.00000087   -0.00015250
     atom    2 type  1   force =     0.00000000   -0.00000449    0.00013505
     atom    3 type  2   force =    -0.00001298    0.00000172    0.00010155
     atom    4 type  2   force =     0.00001298    0.00000172    0.00010155
     atom    5 type  2   force =    -0.00001041    0.00000096   -0.00009283
     atom    6 type  2   force =     0.00001041    0.00000096   -0.00009283

     Total force =     0.000283     Total SCF correction =     0.000010
     Energy error            =      1.4E-07 Ry
     Gradient error          =      1.5E-04 Ry/Bohr

     number of scf cycles    =   5
     number of bfgs steps    =   4

     energy             old  =    -273.7909803184 Ry
     energy             new  =    -273.7909804562 Ry

     CASE: energy            _new < energy            _old

     new trust radius        =       0.0002692863 bohr
     new conv_thr            =            1.0E-10 Ry


ATOMIC_POSITIONS (alat)
Nb            0.5000000000       -0.0022772159        0.2159176258
Nb            0.0000000000        0.3545624203        0.2507564289
C             1.1379952180       -0.0022999442        0.0064217014
C             1.8620047820       -0.0022999442        0.0064217008
C             1.3620014116        0.3545847614        0.4602412709
C             1.6379985884        0.3545847614        0.4602412726



     Writing output data file /home/fernando/serse/temp/NB.save/
     NEW-OLD atomic charge density approx. for the potential

     total cpu time spent up to now is       68.1 secs

     Self-consistent Calculation

     iteration #  1     ecut=    80.00 Ry     beta= 0.70
     Davidson diagonalization with overlap
     ethr =  1.00E-06,  avg # of iterations =  1.2

     Threshold (ethr) on eigenvalues was too large:
     Diagonalizing with lowered threshold

     Davidson diagonalization with overlap
     ethr =  5.52E-09,  avg # of iterations =  3.7

     total cpu time spent up to now is       69.6 secs

     total energy              =    -273.79097916 Ry
     estimated scf accuracy    <       0.00000396 Ry

     iteration #  2     ecut=    80.00 Ry     beta= 0.70
     Davidson diagonalization with overlap
     ethr =  9.44E-09,  avg # of iterations =  3.2

     total cpu time spent up to now is       70.4 secs

     total energy              =    -273.79097890 Ry
     estimated scf accuracy    <       0.00000505 Ry

     iteration #  3     ecut=    80.00 Ry     beta= 0.70
     Davidson diagonalization with overlap
     ethr =  9.44E-09,  avg # of iterations =  4.9

     total cpu time spent up to now is       71.3 secs

     total energy              =    -273.79097972 Ry
     estimated scf accuracy    <       0.00000722 Ry

     iteration #  4     ecut=    80.00 Ry     beta= 0.70
     Davidson diagonalization with overlap
     ethr =  9.44E-09,  avg # of iterations =  3.4

     total cpu time spent up to now is       72.0 secs

     total energy              =    -273.79098048 Ry
     estimated scf accuracy    <       0.00000012 Ry

     iteration #  5     ecut=    80.00 Ry     beta= 0.70
     Davidson diagonalization with overlap
     ethr =  2.85E-10,  avg # of iterations =  5.3

     total cpu time spent up to now is       73.0 secs

     total energy              =    -273.79098056 Ry
     estimated scf accuracy    <       0.00000004 Ry

     iteration #  6     ecut=    80.00 Ry     beta= 0.70
     Davidson diagonalization with overlap
     ethr =  1.05E-10,  avg # of iterations =  2.2

     total cpu time spent up to now is       73.7 secs

     total energy              =    -273.79098056 Ry
     estimated scf accuracy    <       0.00000002 Ry

     iteration #  7     ecut=    80.00 Ry     beta= 0.70
     Davidson diagonalization with overlap
     ethr =  4.15E-11,  avg # of iterations =  2.0

     total cpu time spent up to now is       74.4 secs

     total energy              =    -273.79098056 Ry
     estimated scf accuracy    <          4.7E-09 Ry

     iteration #  8     ecut=    80.00 Ry     beta= 0.70
     Davidson diagonalization with overlap
     ethr =  1.12E-11,  avg # of iterations =  5.2

     total cpu time spent up to now is       75.2 secs

     total energy              =    -273.79098057 Ry
     estimated scf accuracy    <          2.8E-10 Ry

     iteration #  9     ecut=    80.00 Ry     beta= 0.70
     Davidson diagonalization with overlap
     ethr =  6.59E-13,  avg # of iterations =  4.8

     total cpu time spent up to now is       76.1 secs

     total energy              =    -273.79098057 Ry
     estimated scf accuracy    <          2.5E-10 Ry

     iteration # 10     ecut=    80.00 Ry     beta= 0.70
     Davidson diagonalization with overlap
     ethr =  5.87E-13,  avg # of iterations =  2.0

     total cpu time spent up to now is       76.8 secs

     End of self-consistent calculation

          k = 0.0000 0.0000 0.0000 ( 42769 PWs)   bands (ev):

   -59.7895 -59.6859 -35.0215 -34.9201 -34.8247 -34.6682 -34.6217 -34.2781
   -18.0125 -17.6008 -10.4713  -9.2259  -9.1706  -8.3220  -7.9233  -7.2526
    -6.8892  -6.3504  -6.2964  -1.9009  -1.5116  -1.4625  -0.2054  -0.1954
    -0.1550

          k = 0.0000 0.2802 0.0000 ( 42653 PWs)   bands (ev):

   -59.7765 -59.6926 -34.9596 -34.9490 -34.7988 -34.7253 -34.6671 -34.3472
   -17.8351 -17.5173 -10.3461  -9.3259  -9.0916  -7.9638  -7.9417  -7.0473
    -6.8098  -6.3732  -6.2734  -3.1326  -2.3188  -1.2797  -1.1473  -1.0658
    -0.2646

          k = 0.0000 0.5605 0.0000 ( 42539 PWs)   bands (ev):

   -59.7457 -59.7136 -34.9906 -34.9009 -34.7604 -34.7461 -34.6972 -34.5303
   -17.5354 -17.4244 -10.0530  -9.6850  -8.6501  -7.9091  -7.5021  -7.1433
    -6.1427  -6.0591  -6.0373  -4.8951  -2.9452  -2.0541  -1.5462  -1.0890
    -0.7058

          k = 0.2000 0.0000 0.0000 ( 42691 PWs)   bands (ev):

   -59.7796 -59.6958 -34.9598 -34.8924 -34.8050 -34.6856 -34.6510 -34.3517
   -17.9191 -17.5914 -10.6478  -9.5461  -8.7209  -8.1310  -7.9050  -7.2982
    -7.0498  -6.5028  -5.8672  -2.6859  -2.5656  -1.5548  -1.2884  -0.5019
    -0.4509

          k = 0.2000 0.2802 0.0000 ( 42637 PWs)   bands (ev):

   -59.7685 -59.7007 -35.0293 -34.8040 -34.7835 -34.7833 -34.6808 -34.3699
   -17.7581 -17.5040 -10.6174  -9.7377  -8.5942  -7.8366  -7.7115  -7.1467
    -6.9307  -6.4865  -5.9608  -3.2509  -2.8639  -2.1946  -1.3898  -0.6113
     0.1207

          k = 0.2000 0.5605 0.0000 ( 42542 PWs)   bands (ev):

   -59.7426 -59.7166 -35.0755 -34.9847 -34.7413 -34.7018 -34.6414 -34.4732
   -17.4892 -17.4001 -10.4778 -10.1461  -8.1982  -7.5808  -7.3703  -7.0489
    -6.3714  -6.3061  -5.5715  -4.6209  -3.3279  -2.7400  -1.8350  -0.7250
    -0.4089

          k = 0.4000 0.0000 0.0000 ( 42604 PWs)   bands (ev):

   -59.7537 -59.7218 -34.8190 -34.8177 -34.7331 -34.7297 -34.7268 -34.5368
   -17.7310 -17.6091 -10.6513 -10.2122  -7.8699  -7.8395  -7.7441  -7.4100
    -7.3749  -6.8963  -4.7558  -3.5733  -3.5656  -3.2208  -1.3280  -0.9298
     0.3920

          k = 0.4000 0.2802 0.0000 ( 42614 PWs)   bands (ev):

   -59.7476 -59.7217 -35.0073 -34.9062 -34.7547 -34.7141 -34.6160 -34.4587
   -17.6032 -17.5083 -10.7586 -10.4079  -7.8553  -7.4605  -7.4294  -7.3514
    -7.1289  -6.8936  -5.0811  -4.2082  -3.1571  -3.1003  -1.0507  -1.0361
    -0.0021

          k = 0.4000 0.5605 0.0000 ( 42575 PWs)   bands (ev):

   -59.7346 -59.7247 -35.1394 -35.1016 -34.7289 -34.7138 -34.4915 -34.4303
   -17.4020 -17.3685 -10.8844 -10.7515  -7.6410  -7.4055  -7.1228  -6.9359
    -6.4247  -6.3954  -4.9156  -4.3170  -4.1902  -3.6853  -1.2735  -1.0979
    -0.1044

     the Fermi energy is    -2.8647 ev

!    total energy              =    -273.79098057 Ry
     estimated scf accuracy    <          3.5E-11 Ry
     smearing contrib. (-TS)   =      -0.00175840 Ry
     internal energy E=F+TS    =    -273.78922217 Ry

     The total energy is F=E-TS. E is the sum of the following terms:
     one-electron contribution =   -2745.00772292 Ry
     hartree contribution      =    1366.90738300 Ry
     xc contribution           =     -41.16864308 Ry
     ewald contribution        =    1145.47976083 Ry

     convergence has been achieved in  10 iterations

     Forces acting on atoms (cartesian axes, Ry/au):

     atom    1 type  1   force =     0.00000000    0.00000024   -0.00009791
     atom    2 type  1   force =     0.00000000    0.00000044    0.00003605
     atom    3 type  2   force =     0.00001635   -0.00000030    0.00005393
     atom    4 type  2   force =    -0.00001635   -0.00000030    0.00005393
     atom    5 type  2   force =     0.00001423   -0.00000003   -0.00002300
     atom    6 type  2   force =    -0.00001423   -0.00000003   -0.00002300

     Total force =     0.000137     Total SCF correction =     0.000009
     Energy error            =      1.1E-07 Ry
     Gradient error          =      9.8E-05 Ry/Bohr

     bfgs converged in   6 scf cycles and   5 bfgs steps
     (criteria: energy <  1.0E-05 Ry, force <  1.0E-04 Ry/Bohr)

     End of BFGS Geometry Optimization

     Final energy             =    -273.7909805659 Ry

     File /home/fernando/serse/temp/NB.bfgs deleted, as requested
Begin final coordinates

ATOMIC_POSITIONS (alat)
Nb            0.5000000000       -0.0022772159        0.2159176258
Nb            0.0000000000        0.3545624203        0.2507564289
C             1.1379952180       -0.0022999442        0.0064217014
C             1.8620047820       -0.0022999442        0.0064217008
C             1.3620014116        0.3545847614        0.4602412709
C             1.6379985884        0.3545847614        0.4602412726
End final coordinates



     Writing output data file /home/fernando/serse/temp/NB.save/
 
     init_run     :      0.69s CPU      0.87s WALL (       1 calls)
     electrons    :     71.12s CPU     73.59s WALL (       6 calls)
     update_pot   :      1.15s CPU      1.15s WALL (       5 calls)
     forces       :      1.28s CPU      1.29s WALL (       6 calls)

     Called by init_run:
     wfcinit      :      0.21s CPU      0.29s WALL (       1 calls)
     potinit      :      0.15s CPU      0.18s WALL (       1 calls)
     hinit0       :      0.12s CPU      0.17s WALL (       1 calls)

     Called by electrons:
     c_bands      :     59.98s CPU     60.80s WALL (      82 calls)
     sum_band     :      8.00s CPU      8.11s WALL (      82 calls)
     v_of_rho     :      2.19s CPU      2.23s WALL (      86 calls)
     mix_rho      :      0.72s CPU      0.74s WALL (      82 calls)

     Called by c_bands:
     init_us_2    :      1.21s CPU      1.24s WALL (    1539 calls)
     cegterg      :     55.82s CPU     56.55s WALL (     738 calls)

     Called by *egterg:
     cdiaghg      :      3.51s CPU      3.60s WALL (    3715 calls)
     h_psi        :     41.20s CPU     41.83s WALL (    3787 calls)
     g_psi        :      0.32s CPU      0.32s WALL (    3040 calls)

     Called by h_psi:
     h_psi:calbec :      3.00s CPU      3.06s WALL (    3787 calls)
     vloc_psi     :     33.98s CPU     34.51s WALL (    3787 calls)
     add_vuspsi   :      3.56s CPU      3.59s WALL (    3787 calls)

     General routines
     calbec       :      3.16s CPU      3.22s WALL (    4003 calls)
     fft          :      1.05s CPU      1.09s WALL (    1033 calls)
     ffts         :      0.12s CPU      0.14s WALL (     168 calls)
     fftw         :     34.95s CPU     35.49s WALL (  123458 calls)
     interpolate  :      0.19s CPU      0.20s WALL (      86 calls)
 
     Parallel routines
 
     PWSCF        :   1m14.45s CPU   1m23.59s WALL

 
   This run was terminated on:  18:12: 8  16Jan2025            

=------------------------------------------------------------------------------=
   JOB DONE.
=------------------------------------------------------------------------------=
