
     Program PWSCF v.6.8 starts on 16Jan2025 at 17:47:41 

     This program is part of the open-source Quantum ESPRESSO suite
     for quantum simulation of materials; please cite
         "P. Giannozzi et al., J. Phys.:Condens. Matter 21 395502 (2009);
         "P. Giannozzi et al., J. Phys.:Condens. Matter 29 465901 (2017);
         "P. Giannozzi et al., J. Chem. Phys. 152 154105 (2020);
          URL http://www.quantum-espresso.org", 
     in publications or presentations arising from this work. More details at
     http://www.quantum-espresso.org/quote

     Parallel version (MPI & OpenMP), running on      24 processor cores
     Number of MPI processes:                24
     Threads/MPI process:                     1

     MPI processes distributed on     1 nodes
     R & G space division:  proc/nbgrp/npool/nimage =      24
     184677 MiB available memory on the printing compute node when the environment starts
 
     Waiting for input...
     Reading input from standard input

     Current dimensions of program PWSCF are:
     Max number of different atomic species (ntypx) = 10
     Max number of k-points (npk) =  40000
     Max angular momentum in pseudopotentials (lmaxx) =  4
     Message from routine setup:
     no reason to have ecutrho>4*ecutwfc
     Message from routine setup:
     using ibrav=0 with symmetry is DISCOURAGED, use correct ibrav instead

     Subspace diagonalization in iterative solution of the eigenvalue problem:
     a serial algorithm will be used

 
     Parallelization info
     --------------------
     sticks:   dense  smooth     PW     G-vecs:    dense   smooth      PW
     Min          83      57     16                19841    11595    1696
     Max          85      58     17                19859    11636    1715
     Sum        1997    1387    389               476407   278917   40899
 
     Using Slab Decomposition
 

     Title: 
     NB relax                                                                   


     bravais-lattice index     =            0
     lattice parameter (alat)  =       9.3730  a.u.
     unit-cell volume          =    3526.2142 (a.u.)^3
     number of atoms/cell      =            6
     number of atomic types    =            2
     number of electrons       =        42.00
     number of Kohn-Sham states=           25
     kinetic-energy cutoff     =      70.0000  Ry
     charge density cutoff     =     400.0000  Ry
     scf convergence threshold =      1.0E-08
     mixing beta               =       0.7000
     number of iterations used =            8  plain     mixing
     energy convergence thresh.=      1.0E-05
     force convergence thresh. =      1.0E-04
     Exchange-correlation= SLA-PW-PBX-PBC
                           (   1   4   3   4   0   0   0)
     nstep                     =          100


     celldm(1)=   9.373000  celldm(2)=   0.000000  celldm(3)=   0.000000
     celldm(4)=   0.000000  celldm(5)=   0.000000  celldm(6)=   0.000000

     crystal axes: (cart. coord. in units of alat)
               a(1) = (   1.000000   0.000000   0.000000 )  
               a(2) = (   0.000000   0.713710   0.000000 )  
               a(3) = (   0.000000   0.000000   6.000000 )  

     reciprocal axes: (cart. coord. in units 2 pi/alat)
               b(1) = (  1.000000  0.000000  0.000000 )  
               b(2) = (  0.000000  1.401130  0.000000 )  
               b(3) = (  0.000000  0.000000  0.166667 )  


     PseudoPot. # 1 for Nb read from file:
     /home/fernando/serse/pseudos/Nb.pbe-sp-hgh.UPF
     MD5 check sum: 9806bd744c6e87f68d8a90a6c9e3b9fe
     Pseudo is Norm-conserving, Zval = 13.0
     Generated in analytical, separable form
     Using radial grid of 1227 points,  6 beta functions with: 
                l(1) =   0
                l(2) =   0
                l(3) =   1
                l(4) =   1
                l(5) =   2
                l(6) =   2

     PseudoPot. # 2 for C  read from file:
     /home/fernando/serse/pseudos/C.pbe-hgh.UPF
     MD5 check sum: ca26ff84b356733038fc2f5c468d1892
     Pseudo is Norm-conserving, Zval =  4.0
     Generated in analytical, separable form
     Using radial grid of 1073 points,  1 beta functions with: 
                l(1) =   0

     atomic species   valence    mass     pseudopotential
        Nb            13.00    92.90638     Nb( 1.00)
        C              4.00    12.01100     C ( 1.00)

      2 Sym. Ops. (no inversion) found



   Cartesian axes

     site n.     atom                  positions (alat units)
         1           Nb  tau(   1) = (   0.5000000   0.0000000   0.4000000  )
         2           Nb  tau(   2) = (   0.0000000   0.3568548   0.2000000  )
         3           C   tau(   3) = (   1.2500000   0.0000000   0.0000000  )
         4           C   tau(   4) = (   1.7500000   0.0000000   0.0000000  )
         5           C   tau(   5) = (   1.4000000   0.3500000   0.4000000  )
         6           C   tau(   6) = (   1.6000000   0.3500000   0.4000000  )

     number of k points=     9  Gaussian smearing, width (Ry)=  0.0100
                       cart. coord. in units 2pi/alat
        k(    1) = (   0.0000000   0.0000000   0.0000000), wk =   0.0800000
        k(    2) = (   0.0000000   0.2802260   0.0000000), wk =   0.1600000
        k(    3) = (   0.0000000   0.5604520   0.0000000), wk =   0.1600000
        k(    4) = (   0.2000000   0.0000000   0.0000000), wk =   0.1600000
        k(    5) = (   0.2000000   0.2802260   0.0000000), wk =   0.3200000
        k(    6) = (   0.2000000   0.5604520   0.0000000), wk =   0.3200000
        k(    7) = (   0.4000000   0.0000000   0.0000000), wk =   0.1600000
        k(    8) = (   0.4000000   0.2802260   0.0000000), wk =   0.3200000
        k(    9) = (   0.4000000   0.5604520   0.0000000), wk =   0.3200000

     Dense  grid:   476407 G-vectors     FFT dimensions: (  60,  45, 360)

     Smooth grid:   278917 G-vectors     FFT dimensions: (  50,  36, 300)

     Estimated max dynamical RAM per process >      23.57 MB

     Estimated total dynamical RAM >     565.59 MB

     Initial potential from superposition of free atoms

     starting charge   15.99983, renormalised to   42.00000

     negative rho (up, down):  1.103E-05 0.000E+00
     Starting wfcs are   16 randomized atomic wfcs +    9 random wfcs

     total cpu time spent up to now is        0.8 secs

     Self-consistent Calculation

     iteration #  1     ecut=    70.00 Ry     beta= 0.70
     Davidson diagonalization with overlap
     c_bands:  1 eigenvalues not converged
     ethr =  1.00E-02,  avg # of iterations = 18.6

     negative rho (up, down):  9.214E-08 0.000E+00

     total cpu time spent up to now is        3.6 secs

     total energy              =    -159.61972566 Ry
     estimated scf accuracy    <     436.40228426 Ry

     iteration #  2     ecut=    70.00 Ry     beta= 0.70
     Davidson diagonalization with overlap
     ethr =  1.00E-02,  avg # of iterations = 12.8

     negative rho (up, down):  2.660E-05 0.000E+00

     total cpu time spent up to now is        5.9 secs

     total energy              =     -77.77610237 Ry
     estimated scf accuracy    <     513.67123671 Ry

     iteration #  3     ecut=    70.00 Ry     beta= 0.70
     Davidson diagonalization with overlap
     c_bands:  2 eigenvalues not converged
     ethr =  1.00E-02,  avg # of iterations = 17.8

     negative rho (up, down):  2.476E-05 0.000E+00

     total cpu time spent up to now is        8.6 secs

     total energy              =    -280.08149282 Ry
     estimated scf accuracy    <     221.23942852 Ry

     iteration #  4     ecut=    70.00 Ry     beta= 0.70
     Davidson diagonalization with overlap
     ethr =  1.00E-02,  avg # of iterations =  9.9

     negative rho (up, down):  2.105E-05 0.000E+00

     total cpu time spent up to now is       10.0 secs

     total energy              =    -284.31981450 Ry
     estimated scf accuracy    <      63.78647362 Ry

     iteration #  5     ecut=    70.00 Ry     beta= 0.70
     Davidson diagonalization with overlap
     ethr =  1.00E-02,  avg # of iterations =  5.8

     negative rho (up, down):  1.772E-05 0.000E+00

     total cpu time spent up to now is       10.8 secs

     total energy              =    -280.32731719 Ry
     estimated scf accuracy    <      50.14101217 Ry

     iteration #  6     ecut=    70.00 Ry     beta= 0.70
     Davidson diagonalization with overlap
     ethr =  1.00E-02,  avg # of iterations =  2.2

     negative rho (up, down):  1.159E-05 0.000E+00

     total cpu time spent up to now is       11.4 secs

     total energy              =    -273.60853193 Ry
     estimated scf accuracy    <      28.29086333 Ry

     iteration #  7     ecut=    70.00 Ry     beta= 0.70
     Davidson diagonalization with overlap
     ethr =  1.00E-02,  avg # of iterations =  6.1

     negative rho (up, down):  1.236E-05 0.000E+00

     total cpu time spent up to now is       12.2 secs

     total energy              =    -274.81528574 Ry
     estimated scf accuracy    <       5.86587148 Ry

     iteration #  8     ecut=    70.00 Ry     beta= 0.70
     Davidson diagonalization with overlap
     ethr =  1.00E-02,  avg # of iterations =  2.2

     negative rho (up, down):  4.675E-06 0.000E+00

     total cpu time spent up to now is       12.8 secs

     total energy              =    -271.11875669 Ry
     estimated scf accuracy    <      12.53722138 Ry

     iteration #  9     ecut=    70.00 Ry     beta= 0.70
     Davidson diagonalization with overlap
     ethr =  1.00E-02,  avg # of iterations =  5.2

     negative rho (up, down):  5.723E-06 0.000E+00

     total cpu time spent up to now is       13.6 secs

     total energy              =    -272.72306979 Ry
     estimated scf accuracy    <       2.19303579 Ry

     iteration # 10     ecut=    70.00 Ry     beta= 0.70
     Davidson diagonalization with overlap
     ethr =  5.22E-03,  avg # of iterations =  2.0

     negative rho (up, down):  1.391E-07 0.000E+00

     total cpu time spent up to now is       14.1 secs

     total energy              =    -272.25198169 Ry
     estimated scf accuracy    <       1.06740358 Ry

     iteration # 11     ecut=    70.00 Ry     beta= 0.70
     Davidson diagonalization with overlap
     ethr =  2.54E-03,  avg # of iterations =  4.6

     negative rho (up, down):  1.457E-05 0.000E+00

     total cpu time spent up to now is       14.9 secs

     total energy              =    -271.97089779 Ry
     estimated scf accuracy    <       4.47816879 Ry

     iteration # 12     ecut=    70.00 Ry     beta= 0.70
     Davidson diagonalization with overlap
     ethr =  2.54E-03,  avg # of iterations =  5.1

     negative rho (up, down):  2.568E-05 0.000E+00

     total cpu time spent up to now is       15.6 secs

     total energy              =    -272.51818992 Ry
     estimated scf accuracy    <       0.60012875 Ry

     iteration # 13     ecut=    70.00 Ry     beta= 0.70
     Davidson diagonalization with overlap
     ethr =  1.43E-03,  avg # of iterations =  1.6

     negative rho (up, down):  2.958E-05 0.000E+00

     total cpu time spent up to now is       16.1 secs

     total energy              =    -272.45264108 Ry
     estimated scf accuracy    <       0.45897984 Ry

     iteration # 14     ecut=    70.00 Ry     beta= 0.70
     Davidson diagonalization with overlap
     ethr =  1.09E-03,  avg # of iterations =  2.1

     negative rho (up, down):  2.909E-05 0.000E+00

     total cpu time spent up to now is       16.7 secs

     total energy              =    -272.49394938 Ry
     estimated scf accuracy    <       0.01677325 Ry

     iteration # 15     ecut=    70.00 Ry     beta= 0.70
     Davidson diagonalization with overlap
     ethr =  3.99E-05,  avg # of iterations =  7.8

     negative rho (up, down):  3.065E-05 0.000E+00

     total cpu time spent up to now is       17.5 secs

     total energy              =    -272.49819343 Ry
     estimated scf accuracy    <       0.04583153 Ry

     iteration # 16     ecut=    70.00 Ry     beta= 0.70
     Davidson diagonalization with overlap
     ethr =  3.99E-05,  avg # of iterations =  2.0

     negative rho (up, down):  9.427E-06 0.000E+00

     total cpu time spent up to now is       18.1 secs

     total energy              =    -272.49660216 Ry
     estimated scf accuracy    <       0.02190379 Ry

     iteration # 17     ecut=    70.00 Ry     beta= 0.70
     Davidson diagonalization with overlap
     ethr =  3.99E-05,  avg # of iterations =  2.7

     negative rho (up, down):  9.257E-05 0.000E+00

     total cpu time spent up to now is       18.7 secs

     total energy              =    -272.49763605 Ry
     estimated scf accuracy    <       0.00146955 Ry

     iteration # 18     ecut=    70.00 Ry     beta= 0.70
     Davidson diagonalization with overlap
     ethr =  3.50E-06,  avg # of iterations =  6.6

     total cpu time spent up to now is       19.5 secs

     total energy              =    -272.49798017 Ry
     estimated scf accuracy    <       0.00026649 Ry

     iteration # 19     ecut=    70.00 Ry     beta= 0.70
     Davidson diagonalization with overlap
     ethr =  6.34E-07,  avg # of iterations =  5.0

     total cpu time spent up to now is       20.2 secs

     total energy              =    -272.49801819 Ry
     estimated scf accuracy    <       0.00014537 Ry

     iteration # 20     ecut=    70.00 Ry     beta= 0.70
     Davidson diagonalization with overlap
     ethr =  3.46E-07,  avg # of iterations =  2.2

     total cpu time spent up to now is       20.8 secs

     total energy              =    -272.49802684 Ry
     estimated scf accuracy    <       0.00001963 Ry

     iteration # 21     ecut=    70.00 Ry     beta= 0.70
     Davidson diagonalization with overlap
     ethr =  4.67E-08,  avg # of iterations =  5.3

     total cpu time spent up to now is       21.5 secs

     total energy              =    -272.49803089 Ry
     estimated scf accuracy    <       0.00001318 Ry

     iteration # 22     ecut=    70.00 Ry     beta= 0.70
     Davidson diagonalization with overlap
     ethr =  3.14E-08,  avg # of iterations =  1.9

     total cpu time spent up to now is       22.1 secs

     total energy              =    -272.49803160 Ry
     estimated scf accuracy    <       0.00000143 Ry

     iteration # 23     ecut=    70.00 Ry     beta= 0.70
     Davidson diagonalization with overlap
     ethr =  3.39E-09,  avg # of iterations =  5.1

     total cpu time spent up to now is       22.8 secs

     total energy              =    -272.49803195 Ry
     estimated scf accuracy    <       0.00000022 Ry

     iteration # 24     ecut=    70.00 Ry     beta= 0.70
     Davidson diagonalization with overlap
     ethr =  5.32E-10,  avg # of iterations =  3.9

     total cpu time spent up to now is       23.5 secs

     End of self-consistent calculation

          k = 0.0000 0.0000 0.0000 ( 34913 PWs)   bands (ev):

   -59.6261 -59.3286 -35.7184 -34.6796 -34.5599 -34.3003 -34.2350 -34.0268
   -21.7032 -13.0478 -10.0922  -9.4231  -8.8841  -8.4220  -6.7942  -6.4313
    -5.5733  -4.5766  -4.1671  -3.5563  -2.9134  -2.4449  -1.9937  -1.4838
    -0.2900

          k = 0.0000 0.2802 0.0000 ( 34840 PWs)   bands (ev):

   -59.6226 -59.3266 -35.8694 -34.6458 -34.5525 -34.3653 -34.2064 -34.0536
   -20.7781 -12.7896 -10.2145 -10.1777  -9.9310  -8.4588  -7.8242  -6.1048
    -5.4376  -4.6450  -3.9308  -3.2799  -2.4149  -2.2956  -1.8974  -0.8306
    -0.7675

          k = 0.0000 0.5605 0.0000 ( 34908 PWs)   bands (ev):

   -59.6170 -59.3236 -36.0992 -34.5830 -34.5419 -34.4520 -34.1767 -34.1055
   -18.6911 -12.2821 -11.6207 -11.1723 -10.8438 -10.3864  -8.0652  -5.7402
    -4.8685  -4.1754  -3.7611  -3.0295  -2.5153  -1.8992  -1.5885  -0.5057
    -0.0037

          k = 0.2000 0.0000 0.0000 ( 34795 PWs)   bands (ev):

   -59.6249 -59.3296 -35.7165 -34.6648 -34.5625 -34.3026 -34.2281 -34.0489
   -21.6897 -12.8821 -10.6136  -9.3094  -8.9175  -8.3495  -6.6898  -5.8838
    -5.6522  -4.7343  -4.1671  -3.5030  -3.2519  -2.1304  -1.9004  -1.3739
    -0.8656

          k = 0.2000 0.2802 0.0000 ( 34891 PWs)   bands (ev):

   -59.6219 -59.3274 -35.8724 -34.6315 -34.5541 -34.3735 -34.2041 -34.0594
   -20.7668 -12.6423 -10.6550 -10.1611  -9.8977  -8.4094  -7.8076  -5.7222
    -5.2125  -4.6510  -3.7679  -3.4852  -2.9655  -2.0827  -1.5144  -1.3880
    -0.7899

          k = 0.2000 0.5605 0.0000 ( 34950 PWs)   bands (ev):

   -59.6169 -59.3237 -36.1070 -34.5729 -34.5418 -34.4682 -34.1862 -34.0808
   -18.6805 -12.1739 -11.6373 -11.1899 -10.8832 -10.6248  -7.9133  -5.4322
    -4.7875  -4.2301  -3.5075  -3.0927  -2.7021  -1.9485  -1.7892  -0.7919
    -0.2575

          k = 0.4000 0.0000 0.0000 ( 34767 PWs)   bands (ev):

   -59.6232 -59.3312 -35.7136 -34.6323 -34.5761 -34.3064 -34.2066 -34.0947
   -21.6687 -12.4310 -11.4627  -9.1757  -8.9740  -8.2536  -6.4167  -5.9271
    -5.2454  -4.6231  -4.2557  -3.3925  -3.2230  -2.5491  -1.9017  -1.2538
    -0.8292

          k = 0.4000 0.2802 0.0000 ( 34848 PWs)   bands (ev):

   -59.6208 -59.3284 -35.8769 -34.6004 -34.5647 -34.3866 -34.1985 -34.0706
   -20.7476 -12.2195 -11.4330 -10.1439  -9.8695  -8.3499  -7.7393  -5.3065
    -4.7598  -4.5640  -3.9235  -3.4259  -3.0344  -2.6518  -1.6464  -1.0490
    -0.7646

          k = 0.4000 0.5605 0.0000 ( 34919 PWs)   bands (ev):

   -59.6167 -59.3238 -36.1193 -34.5550 -34.5432 -34.4923 -34.1940 -34.0505
   -18.6628 -11.8884 -11.6434 -11.3147 -11.1008 -10.8613  -7.6345  -4.9693
    -4.7086  -4.0094  -3.5366  -3.2089  -2.7530  -2.0751  -2.0507  -1.0337
    -0.3577

     the Fermi energy is    -2.5789 ev

!    total energy              =    -272.49803199 Ry
     estimated scf accuracy    <          6.7E-09 Ry
     smearing contrib. (-TS)   =      -0.00224142 Ry
     internal energy E=F+TS    =    -272.49579057 Ry

     The total energy is F=E-TS. E is the sum of the following terms:
     one-electron contribution =   -2729.93691144 Ry
     hartree contribution      =    1360.14800740 Ry
     xc contribution           =     -41.48921103 Ry
     ewald contribution        =    1138.78232449 Ry

     convergence has been achieved in  24 iterations

     Forces acting on atoms (cartesian axes, Ry/au):

     atom    1 type  1   force =     0.00000000   -0.15007020   -0.17494712
     atom    2 type  1   force =     0.00000000   -0.00399374   -0.09903690
     atom    3 type  2   force =    -0.01786841   -0.00089957    0.08449884
     atom    4 type  2   force =     0.01786841   -0.00089957    0.08449884
     atom    5 type  2   force =    -2.04051915    0.07793154    0.05249317
     atom    6 type  2   force =     2.04051915    0.07793154    0.05249317

     Total force =     2.902235     Total SCF correction =     0.000096

     BFGS Geometry Optimization
     Energy error            =      0.0E+00 Ry
     Gradient error          =      2.0E+00 Ry/Bohr

     number of scf cycles    =   1
     number of bfgs steps    =   0

     energy             new  =    -272.4980319910 Ry

     new trust radius        =       0.5000000000 bohr
     new conv_thr            =       0.0000000100 Ry


ATOMIC_POSITIONS (alat)
Nb            0.5000000000       -0.0039190898        0.3954312484
Nb            0.0000000000        0.3567505421        0.1974136469
C             1.2495333656       -0.0000234924        0.0022066909
C             1.7504666344       -0.0000234924        0.0022066909
C             1.3467117534        0.3520351855        0.4013708614
C             1.6532882466        0.3520351855        0.4013708614



     Writing output data file /home/fernando/serse/temp/NB.save/
     NEW-OLD atomic charge density approx. for the potential

     negative rho (up, down):  5.093E-06 0.000E+00

     total cpu time spent up to now is       24.3 secs

     Self-consistent Calculation

     iteration #  1     ecut=    70.00 Ry     beta= 0.70
     Davidson diagonalization with overlap
     c_bands:  3 eigenvalues not converged
     c_bands:  2 eigenvalues not converged
     c_bands:  1 eigenvalues not converged
     c_bands:  1 eigenvalues not converged
     c_bands:  3 eigenvalues not converged
     c_bands:  2 eigenvalues not converged
     c_bands:  2 eigenvalues not converged
     c_bands:  2 eigenvalues not converged
     ethr =  1.00E-06,  avg # of iterations = 19.9

     total cpu time spent up to now is       27.5 secs

     total energy              =    -270.00321144 Ry
     estimated scf accuracy    <       4.24883258 Ry

     iteration #  2     ecut=    70.00 Ry     beta= 0.70
     Davidson diagonalization with overlap
     ethr =  1.00E-02,  avg # of iterations =  7.7

     negative rho (up, down):  2.130E-05 0.000E+00

     total cpu time spent up to now is       28.6 secs

     total energy              =    -265.56108272 Ry
     estimated scf accuracy    <     119.12023668 Ry

     iteration #  3     ecut=    70.00 Ry     beta= 0.70
     Davidson diagonalization with overlap
     ethr =  1.00E-02,  avg # of iterations =  6.9

     negative rho (up, down):  2.148E-05 0.000E+00

     total cpu time spent up to now is       29.6 secs

     total energy              =    -272.66311491 Ry
     estimated scf accuracy    <       2.98294297 Ry

     iteration #  4     ecut=    70.00 Ry     beta= 0.70
     Davidson diagonalization with overlap
     ethr =  7.10E-03,  avg # of iterations =  3.9

     negative rho (up, down):  1.239E-05 0.000E+00

     total cpu time spent up to now is       30.3 secs

     total energy              =    -272.98124028 Ry
     estimated scf accuracy    <       0.16352359 Ry

     iteration #  5     ecut=    70.00 Ry     beta= 0.70
     Davidson diagonalization with overlap
     ethr =  3.89E-04,  avg # of iterations =  7.6

     negative rho (up, down):  5.432E-06 0.000E+00

     total cpu time spent up to now is       31.3 secs

     total energy              =    -273.06615046 Ry
     estimated scf accuracy    <       0.19320766 Ry

     iteration #  6     ecut=    70.00 Ry     beta= 0.70
     Davidson diagonalization with overlap
     ethr =  3.89E-04,  avg # of iterations =  2.0

     negative rho (up, down):  1.219E-06 0.000E+00

     total cpu time spent up to now is       31.8 secs

     total energy              =    -273.08491686 Ry
     estimated scf accuracy    <       0.01637395 Ry

     iteration #  7     ecut=    70.00 Ry     beta= 0.70
     Davidson diagonalization with overlap
     ethr =  3.90E-05,  avg # of iterations =  7.0

     total cpu time spent up to now is       32.7 secs

     total energy              =    -273.08743454 Ry
     estimated scf accuracy    <       0.00467278 Ry

     iteration #  8     ecut=    70.00 Ry     beta= 0.70
     Davidson diagonalization with overlap
     ethr =  1.11E-05,  avg # of iterations =  6.1

     total cpu time spent up to now is       33.5 secs

     total energy              =    -273.08745747 Ry
     estimated scf accuracy    <       0.00693502 Ry

     iteration #  9     ecut=    70.00 Ry     beta= 0.70
     Davidson diagonalization with overlap
     ethr =  1.11E-05,  avg # of iterations =  1.8

     total cpu time spent up to now is       34.0 secs

     total energy              =    -273.08787328 Ry
     estimated scf accuracy    <       0.00017891 Ry

     iteration # 10     ecut=    70.00 Ry     beta= 0.70
     Davidson diagonalization with overlap
     ethr =  4.26E-07,  avg # of iterations =  5.6

     total cpu time spent up to now is       34.8 secs

     total energy              =    -273.08795370 Ry
     estimated scf accuracy    <       0.00003540 Ry

     iteration # 11     ecut=    70.00 Ry     beta= 0.70
     Davidson diagonalization with overlap
     ethr =  8.43E-08,  avg # of iterations =  3.6

     total cpu time spent up to now is       35.5 secs

     total energy              =    -273.08795976 Ry
     estimated scf accuracy    <       0.00000320 Ry

     iteration # 12     ecut=    70.00 Ry     beta= 0.70
     Davidson diagonalization with overlap
     ethr =  7.62E-09,  avg # of iterations =  5.3

     total cpu time spent up to now is       36.2 secs

     total energy              =    -273.08796079 Ry
     estimated scf accuracy    <       0.00000029 Ry

     iteration # 13     ecut=    70.00 Ry     beta= 0.70
     Davidson diagonalization with overlap
     ethr =  6.94E-10,  avg # of iterations =  4.3

     total cpu time spent up to now is       37.0 secs

     total energy              =    -273.08796080 Ry
     estimated scf accuracy    <       0.00000045 Ry

     iteration # 14     ecut=    70.00 Ry     beta= 0.70
     Davidson diagonalization with overlap
     ethr =  6.94E-10,  avg # of iterations =  2.2

     total cpu time spent up to now is       37.5 secs

     total energy              =    -273.08796083 Ry
     estimated scf accuracy    <       0.00000001 Ry

     iteration # 15     ecut=    70.00 Ry     beta= 0.70
     Davidson diagonalization with overlap
     ethr =  3.43E-11,  avg # of iterations =  5.2

     total cpu time spent up to now is       38.3 secs

     End of self-consistent calculation

          k = 0.0000 0.0000 0.0000 ( 34913 PWs)   bands (ev):

   -59.4265 -59.2739 -34.9546 -34.6700 -34.4445 -34.2304 -34.1569 -34.0933
   -18.2087 -13.1189 -10.3475 -10.0414  -8.2674  -8.0389  -7.5360  -6.2422
    -4.7049  -4.1986  -4.1853  -3.7400  -3.1055  -2.0121  -1.3960  -0.9120
    -0.4352

          k = 0.0000 0.2802 0.0000 ( 34840 PWs)   bands (ev):

   -59.4215 -59.2717 -35.0885 -34.6232 -34.4329 -34.2646 -34.1694 -34.1353
   -17.3406 -12.8577 -10.9068 -10.4426  -8.4386  -7.7376  -6.7402  -6.2718
    -5.6072  -4.4822  -3.9670  -3.8774  -2.8930  -1.6318  -1.3684  -1.2895
    -0.2352

          k = 0.0000 0.5605 0.0000 ( 34908 PWs)   bands (ev):

   -59.4136 -59.2685 -35.2936 -34.5209 -34.4188 -34.3428 -34.2299 -34.1631
   -15.4436 -12.4160 -11.6359 -10.6573  -9.2310  -8.3134  -7.2877  -5.9018
    -4.9055  -4.7109  -3.7706  -3.3872  -2.8447  -2.3637  -1.5886  -1.3434
    -0.3256

          k = 0.2000 0.0000 0.0000 ( 34795 PWs)   bands (ev):

   -59.4241 -59.2761 -34.9502 -34.6431 -34.4512 -34.2312 -34.1620 -34.1162
   -18.1598 -13.0067 -10.8172 -10.1025  -8.2444  -7.9203  -7.1874  -5.8013
    -4.9947  -4.6429  -4.0165  -3.8528  -2.6400  -1.9497  -1.6831  -0.9752
    -0.8146

          k = 0.2000 0.2802 0.0000 ( 34891 PWs)   bands (ev):

   -59.4200 -59.2734 -35.0975 -34.5928 -34.4373 -34.2852 -34.1815 -34.1215
   -17.2915 -12.7654 -11.0413 -10.7587  -8.2258  -7.7457  -6.6704  -5.9865
    -5.4680  -4.6410  -3.9219  -3.7244  -3.1534  -2.0385  -1.3624  -1.2423
    -0.4708

          k = 0.2000 0.5605 0.0000 ( 34950 PWs)   bands (ev):

   -59.4134 -59.2688 -35.3125 -34.4985 -34.4198 -34.3865 -34.2094 -34.1403
   -15.3872 -12.3371 -11.7874 -10.9269  -8.9320  -8.2780  -7.4057  -5.7571
    -4.7029  -4.5395  -3.7036  -3.4693  -3.1151  -2.5337  -2.0693  -1.3899
    -0.2820

          k = 0.4000 0.0000 0.0000 ( 34767 PWs)   bands (ev):

   -59.4201 -59.2801 -34.9429 -34.5790 -34.4851 -34.2165 -34.1710 -34.1665
   -18.0799 -12.7118 -11.5715 -10.1748  -8.2477  -7.6743  -6.4861  -5.7100
    -5.4443  -4.7982  -3.6265  -3.3450  -2.8897  -2.8075  -1.5600  -0.9332
    -0.6183

          k = 0.4000 0.2802 0.0000 ( 34848 PWs)   bands (ev):

   -59.4174 -59.2760 -35.1102 -34.5272 -34.4651 -34.3133 -34.1878 -34.1151
   -17.2087 -12.5120 -11.6021 -10.9344  -8.0306  -7.4821  -6.4476  -6.0853
    -5.6042  -4.3219  -3.6160  -3.3749  -3.2552  -2.8588  -1.9220  -0.9086
    -0.4549

          k = 0.4000 0.5605 0.0000 ( 34919 PWs)   bands (ev):

   -59.4129 -59.2692 -35.3410 -34.4683 -34.4320 -34.4178 -34.2010 -34.1032
   -15.2882 -12.2336 -11.8819 -11.4038  -8.4953  -8.2715  -7.5014  -5.4230
    -4.5672  -4.4852  -3.9023  -3.4706  -2.9621  -2.8425  -2.2402  -1.5771
    -0.5715

     the Fermi energy is    -2.8477 ev

!    total energy              =    -273.08796083 Ry
     estimated scf accuracy    <          8.5E-09 Ry
     smearing contrib. (-TS)   =      -0.00400114 Ry
     internal energy E=F+TS    =    -273.08395968 Ry

     The total energy is F=E-TS. E is the sum of the following terms:
     one-electron contribution =   -2723.13631194 Ry
     hartree contribution      =    1356.87531542 Ry
     xc contribution           =     -40.93842129 Ry
     ewald contribution        =    1134.11545813 Ry

     convergence has been achieved in  15 iterations

     Forces acting on atoms (cartesian axes, Ry/au):

     atom    1 type  1   force =     0.00000000   -0.00949874   -0.17296179
     atom    2 type  1   force =     0.00000000   -0.00099041   -0.16599425
     atom    3 type  2   force =    -0.02138252   -0.00057717    0.06918814
     atom    4 type  2   force =     0.02138252   -0.00057717    0.06918814
     atom    5 type  2   force =     0.01369962    0.00582175    0.10028988
     atom    6 type  2   force =    -0.01369962    0.00582175    0.10028988

     Total force =     0.297673     Total SCF correction =     0.000153
     Energy error            =      5.9E-01 Ry
     Gradient error          =      1.7E-01 Ry/Bohr

     number of scf cycles    =   2
     number of bfgs steps    =   1

     energy             old  =    -272.4980319910 Ry
     energy             new  =    -273.0879608274 Ry

     CASE: energy            _new < energy            _old

     new trust radius        =       0.1752252747 bohr
     new conv_thr            =       0.0000000100 Ry


ATOMIC_POSITIONS (alat)
Nb            0.5000000000       -0.0050802922        0.3767726625
Nb            0.0000000000        0.3566407915        0.1795736223
C             1.2472303390       -0.0000860626        0.0096846026
C             1.7527696610       -0.0000860626        0.0096846026
C             1.3461930912        0.3527332323        0.4121422549
C             1.6538069088        0.3527332323        0.4121422549



     Writing output data file /home/fernando/serse/temp/NB.save/
     NEW-OLD atomic charge density approx. for the potential

     negative rho (up, down):  7.716E-07 0.000E+00

     total cpu time spent up to now is       39.3 secs

     Self-consistent Calculation

     iteration #  1     ecut=    70.00 Ry     beta= 0.70
     Davidson diagonalization with overlap
     ethr =  1.00E-06,  avg # of iterations = 30.2

     total cpu time spent up to now is       43.7 secs

     total energy              =    -230.22931544 Ry
     estimated scf accuracy    <      56.74705258 Ry

     iteration #  2     ecut=    70.00 Ry     beta= 0.70
     Davidson diagonalization with overlap
     ethr =  1.00E-02,  avg # of iterations = 13.4

     negative rho (up, down):  1.377E-05 0.000E+00

     total cpu time spent up to now is       45.8 secs

     total energy              =    -244.13269417 Ry
     estimated scf accuracy    <     426.67445813 Ry

     iteration #  3     ecut=    70.00 Ry     beta= 0.70
     Davidson diagonalization with overlap
     ethr =  1.00E-02,  avg # of iterations =  9.8

     negative rho (up, down):  1.684E-05 0.000E+00

     total cpu time spent up to now is       47.2 secs

     total energy              =    -273.76788211 Ry
     estimated scf accuracy    <      58.87415314 Ry

     iteration #  4     ecut=    70.00 Ry     beta= 0.70
     Davidson diagonalization with overlap
     ethr =  1.00E-02,  avg # of iterations =  4.2

     negative rho (up, down):  1.758E-05 0.000E+00

     total cpu time spent up to now is       48.0 secs

     total energy              =    -274.27924012 Ry
     estimated scf accuracy    <      27.06534654 Ry

     iteration #  5     ecut=    70.00 Ry     beta= 0.70
     Davidson diagonalization with overlap
     ethr =  1.00E-02,  avg # of iterations =  2.2

     negative rho (up, down):  1.242E-05 0.000E+00

     total cpu time spent up to now is       48.6 secs

     total energy              =    -272.01705228 Ry
     estimated scf accuracy    <      15.62701669 Ry

     iteration #  6     ecut=    70.00 Ry     beta= 0.70
     Davidson diagonalization with overlap
     ethr =  1.00E-02,  avg # of iterations =  6.0

     negative rho (up, down):  7.602E-06 0.000E+00

     total cpu time spent up to now is       49.3 secs

     total energy              =    -273.21492998 Ry
     estimated scf accuracy    <       0.77476262 Ry

     iteration #  7     ecut=    70.00 Ry     beta= 0.70
     Davidson diagonalization with overlap
     ethr =  1.84E-03,  avg # of iterations =  4.0

     negative rho (up, down):  3.088E-06 0.000E+00

     total cpu time spent up to now is       50.0 secs

     total energy              =    -273.22436788 Ry
     estimated scf accuracy    <       1.51620073 Ry

     iteration #  8     ecut=    70.00 Ry     beta= 0.70
     Davidson diagonalization with overlap
     ethr =  1.84E-03,  avg # of iterations =  2.0

     negative rho (up, down):  7.009E-08 0.000E+00

     total cpu time spent up to now is       50.5 secs

     total energy              =    -273.07771183 Ry
     estimated scf accuracy    <       0.72948096 Ry

     iteration #  9     ecut=    70.00 Ry     beta= 0.70
     Davidson diagonalization with overlap
     ethr =  1.74E-03,  avg # of iterations =  3.7

     negative rho (up, down):  2.174E-07 0.000E+00

     total cpu time spent up to now is       51.1 secs

     total energy              =    -273.19170389 Ry
     estimated scf accuracy    <       0.19239490 Ry

     iteration # 10     ecut=    70.00 Ry     beta= 0.70
     Davidson diagonalization with overlap
     ethr =  4.58E-04,  avg # of iterations =  2.7

     total cpu time spent up to now is       51.7 secs

     total energy              =    -273.16705495 Ry
     estimated scf accuracy    <       0.11382562 Ry

     iteration # 11     ecut=    70.00 Ry     beta= 0.70
     Davidson diagonalization with overlap
     ethr =  2.71E-04,  avg # of iterations =  2.7

     total cpu time spent up to now is       52.3 secs

     total energy              =    -273.18442822 Ry
     estimated scf accuracy    <       0.01144872 Ry

     iteration # 12     ecut=    70.00 Ry     beta= 0.70
     Davidson diagonalization with overlap
     ethr =  2.73E-05,  avg # of iterations =  7.7

     negative rho (up, down):  5.675E-08 0.000E+00

     total cpu time spent up to now is       53.2 secs

     total energy              =    -273.18810012 Ry
     estimated scf accuracy    <       0.00625015 Ry

     iteration # 13     ecut=    70.00 Ry     beta= 0.70
     Davidson diagonalization with overlap
     ethr =  1.49E-05,  avg # of iterations =  1.9

     total cpu time spent up to now is       53.8 secs

     total energy              =    -273.18858503 Ry
     estimated scf accuracy    <       0.00029634 Ry

     iteration # 14     ecut=    70.00 Ry     beta= 0.70
     Davidson diagonalization with overlap
     ethr =  7.06E-07,  avg # of iterations =  7.8

     total cpu time spent up to now is       54.7 secs

     total energy              =    -273.18872119 Ry
     estimated scf accuracy    <       0.00009778 Ry

     iteration # 15     ecut=    70.00 Ry     beta= 0.70
     Davidson diagonalization with overlap
     ethr =  2.33E-07,  avg # of iterations =  2.0

     total cpu time spent up to now is       55.3 secs

     total energy              =    -273.18872998 Ry
     estimated scf accuracy    <       0.00002785 Ry

     iteration # 16     ecut=    70.00 Ry     beta= 0.70
     Davidson diagonalization with overlap
     ethr =  6.63E-08,  avg # of iterations =  4.0

     total cpu time spent up to now is       55.9 secs

     total energy              =    -273.18873351 Ry
     estimated scf accuracy    <       0.00000281 Ry

     iteration # 17     ecut=    70.00 Ry     beta= 0.70
     Davidson diagonalization with overlap
     ethr =  6.69E-09,  avg # of iterations =  5.0

     total cpu time spent up to now is       56.7 secs

     total energy              =    -273.18873424 Ry
     estimated scf accuracy    <       0.00000028 Ry

     iteration # 18     ecut=    70.00 Ry     beta= 0.70
     Davidson diagonalization with overlap
     ethr =  6.74E-10,  avg # of iterations =  4.9

     total cpu time spent up to now is       57.4 secs

     total energy              =    -273.18873432 Ry
     estimated scf accuracy    <       0.00000012 Ry

     iteration # 19     ecut=    70.00 Ry     beta= 0.70
     Davidson diagonalization with overlap
     ethr =  2.77E-10,  avg # of iterations =  2.6

     total cpu time spent up to now is       58.0 secs

     End of self-consistent calculation

          k = 0.0000 0.0000 0.0000 ( 34913 PWs)   bands (ev):

   -59.5790 -59.0068 -34.7090 -34.6712 -34.5807 -34.2827 -34.0029 -33.9215
   -17.9829 -13.2646 -10.4737 -10.0706  -8.0722  -7.8058  -7.4495  -6.5725
    -4.8017  -4.6124  -4.2923  -3.5789  -3.5172  -1.9600  -0.9461  -0.9023
    -0.2366

          k = 0.0000 0.2802 0.0000 ( 34840 PWs)   bands (ev):

   -59.5757 -59.0028 -34.8093 -34.6750 -34.5589 -34.3553 -33.9868 -33.9493
   -17.1337 -12.9768 -10.8494 -10.6517  -8.2428  -7.6522  -6.6112  -6.5851
    -5.5288  -4.5788  -4.0312  -3.9943  -3.0573  -1.7363  -1.2859  -0.8350
     0.2270

          k = 0.0000 0.5605 0.0000 ( 34908 PWs)   bands (ev):

   -59.5705 -58.9965 -35.0091 -34.6133 -34.5447 -34.4606 -34.0011 -33.9650
   -15.3082 -12.4845 -11.5675 -10.9390  -9.0960  -8.0934  -7.0511  -6.0636
    -4.8606  -4.8555  -3.7788  -3.3170  -3.0451  -1.9975  -1.4937  -1.2488
    -0.4092

          k = 0.2000 0.0000 0.0000 ( 34795 PWs)   bands (ev):

   -59.5783 -59.0073 -34.6913 -34.6621 -34.5835 -34.2922 -34.0042 -33.9388
   -17.9421 -13.1541 -10.9073 -10.0974  -8.0921  -7.6827  -7.1267  -6.1563
    -5.1167  -4.5828  -4.4570  -3.7794  -3.2207  -1.9295  -1.2321  -0.8714
    -0.4369

          k = 0.2000 0.2802 0.0000 ( 34891 PWs)   bands (ev):

   -59.5753 -59.0033 -34.8350 -34.6372 -34.5551 -34.3692 -33.9863 -33.9537
   -17.0944 -12.8810 -11.0425 -10.8479  -8.0907  -7.6232  -6.6272  -6.1698
    -5.4636  -4.7735  -3.9937  -3.6427  -3.4005  -2.0337  -1.4634  -1.1311
     0.0693

          k = 0.2000 0.5605 0.0000 ( 34950 PWs)   bands (ev):

   -59.5705 -58.9966 -35.0412 -34.5891 -34.5331 -34.4790 -33.9883 -33.9612
   -15.2696 -12.4066 -11.6880 -11.1664  -8.8305  -8.0416  -7.1252  -5.8739
    -4.8269  -4.6961  -3.8585  -3.3544  -3.1723  -2.3617  -1.8945  -1.2753
    -0.3136

          k = 0.4000 0.0000 0.0000 ( 34767 PWs)   bands (ev):

   -59.5773 -59.0083 -34.6564 -34.6431 -34.5964 -34.3086 -34.0017 -33.9724
   -17.8760 -12.8809 -11.5935 -10.1372  -8.1333  -7.4168  -6.5256  -5.8956
    -5.4196  -4.8874  -4.0700  -3.5098  -3.2981  -2.7522  -1.7426  -0.5683
    -0.0640

          k = 0.4000 0.2802 0.0000 ( 34848 PWs)   bands (ev):

   -59.5747 -59.0039 -34.8612 -34.5957 -34.5437 -34.3910 -33.9813 -33.9661
   -17.0288 -12.6242 -11.6586 -10.8923  -7.9289  -7.4079  -6.3555  -6.0165
    -5.7290  -4.4487  -3.8482  -3.5850  -3.2381  -2.8294  -2.1615  -0.7781
    -0.1880

          k = 0.4000 0.5605 0.0000 ( 34919 PWs)   bands (ev):

   -59.5703 -58.9967 -35.0847 -34.5723 -34.5059 -34.5003 -33.9776 -33.9475
   -15.2034 -12.2011 -11.8892 -11.5478  -8.3974  -7.9745  -7.2679  -5.4878
    -4.7396  -4.5750  -4.0606  -3.6736  -2.8921  -2.7238  -2.3956  -1.2886
    -0.3880

     the Fermi energy is    -2.8714 ev

!    total energy              =    -273.18873433 Ry
     estimated scf accuracy    <          9.9E-09 Ry
     smearing contrib. (-TS)   =      -0.00235649 Ry
     internal energy E=F+TS    =    -273.18637784 Ry

     The total energy is F=E-TS. E is the sum of the following terms:
     one-electron contribution =   -2729.30697283 Ry
     hartree contribution      =    1360.01385346 Ry
     xc contribution           =     -40.99332147 Ry
     ewald contribution        =    1137.10006300 Ry

     convergence has been achieved in  19 iterations

     Forces acting on atoms (cartesian axes, Ry/au):

     atom    1 type  1   force =     0.00000000    0.01445299   -0.24939114
     atom    2 type  1   force =     0.00000000   -0.00269216   -0.13418753
     atom    3 type  2   force =    -0.03278701   -0.00070279    0.05435497
     atom    4 type  2   force =     0.03278701   -0.00070279    0.05435497
     atom    5 type  2   force =     0.01376403   -0.00517763    0.13743436
     atom    6 type  2   force =    -0.01376403   -0.00517763    0.13743436

     Total force =     0.355931     Total SCF correction =     0.000136
     Energy error            =      1.0E-01 Ry
     Gradient error          =      2.5E-01 Ry/Bohr

     number of scf cycles    =   3
     number of bfgs steps    =   2

     energy             old  =    -273.0879608274 Ry
     energy             new  =    -273.1887343301 Ry

     CASE: energy            _new < energy            _old


     WARNING: bfgs curvature condition failed, Theta= 0.694
     new trust radius        =       0.1927478022 bohr
     new conv_thr            =       0.0000000100 Ry


ATOMIC_POSITIONS (alat)
Nb            0.5000000000       -0.0120249531        0.3835826306
Nb            0.0000000000        0.3570046257        0.1590126886
C             1.2485782764       -0.0000968523        0.0186788435
C             1.7514217236       -0.0000968523        0.0186788435
C             1.3463545279        0.3560344354        0.4100234969
C             1.6536454721        0.3560344354        0.4100234969



     Writing output data file /home/fernando/serse/temp/NB.save/
     NEW-OLD atomic charge density approx. for the potential

     negative rho (up, down):  2.500E-07 0.000E+00

     total cpu time spent up to now is       58.7 secs

     Self-consistent Calculation

     iteration #  1     ecut=    70.00 Ry     beta= 0.70
     Davidson diagonalization with overlap
     c_bands:  2 eigenvalues not converged
     c_bands:  5 eigenvalues not converged
     c_bands:  3 eigenvalues not converged
     c_bands:  5 eigenvalues not converged
     c_bands:  4 eigenvalues not converged
     c_bands:  2 eigenvalues not converged
     c_bands:  1 eigenvalues not converged
     c_bands:  3 eigenvalues not converged
     ethr =  1.00E-06,  avg # of iterations = 22.1

     total cpu time spent up to now is       62.3 secs

     total energy              =    -262.00429187 Ry
     estimated scf accuracy    <      15.62786268 Ry

     iteration #  2     ecut=    70.00 Ry     beta= 0.70
     Davidson diagonalization with overlap
     ethr =  1.00E-02,  avg # of iterations =  8.1

     negative rho (up, down):  1.143E-05 0.000E+00

     total cpu time spent up to now is       63.7 secs

     total energy              =    -264.14361090 Ry
     estimated scf accuracy    <     163.12772285 Ry

     iteration #  3     ecut=    70.00 Ry     beta= 0.70
     Davidson diagonalization with overlap
     ethr =  1.00E-02,  avg # of iterations =  7.1

     negative rho (up, down):  1.182E-05 0.000E+00

     total cpu time spent up to now is       64.8 secs

     total energy              =    -271.89162714 Ry
     estimated scf accuracy    <      12.31491034 Ry

     iteration #  4     ecut=    70.00 Ry     beta= 0.70
     Davidson diagonalization with overlap
     ethr =  1.00E-02,  avg # of iterations =  5.2

     negative rho (up, down):  7.907E-06 0.000E+00

     total cpu time spent up to now is       65.5 secs

     total energy              =    -273.00375905 Ry
     estimated scf accuracy    <       0.88429962 Ry

     iteration #  5     ecut=    70.00 Ry     beta= 0.70
     Davidson diagonalization with overlap
     ethr =  2.11E-03,  avg # of iterations =  5.3

     negative rho (up, down):  3.229E-06 0.000E+00

     total cpu time spent up to now is       66.3 secs

     total energy              =    -273.15906830 Ry
     estimated scf accuracy    <       0.09057760 Ry

     iteration #  6     ecut=    70.00 Ry     beta= 0.70
     Davidson diagonalization with overlap
     ethr =  2.16E-04,  avg # of iterations =  6.1

     negative rho (up, down):  6.157E-07 0.000E+00

     total cpu time spent up to now is       67.1 secs

     total energy              =    -273.18176540 Ry
     estimated scf accuracy    <       0.03023576 Ry

     iteration #  7     ecut=    70.00 Ry     beta= 0.70
     Davidson diagonalization with overlap
     ethr =  7.20E-05,  avg # of iterations =  5.2

     total cpu time spent up to now is       67.9 secs

     total energy              =    -273.18741597 Ry
     estimated scf accuracy    <       0.00289632 Ry

     iteration #  8     ecut=    70.00 Ry     beta= 0.70
     Davidson diagonalization with overlap
     ethr =  6.90E-06,  avg # of iterations =  4.9

     total cpu time spent up to now is       68.7 secs

     total energy              =    -273.18831645 Ry
     estimated scf accuracy    <       0.00057097 Ry

     iteration #  9     ecut=    70.00 Ry     beta= 0.70
     Davidson diagonalization with overlap
     ethr =  1.36E-06,  avg # of iterations =  4.4

     total cpu time spent up to now is       69.4 secs

     total energy              =    -273.18844736 Ry
     estimated scf accuracy    <       0.00004352 Ry

     iteration # 10     ecut=    70.00 Ry     beta= 0.70
     Davidson diagonalization with overlap
     ethr =  1.04E-07,  avg # of iterations =  4.7

     total cpu time spent up to now is       70.1 secs

     total energy              =    -273.18846322 Ry
     estimated scf accuracy    <       0.00000378 Ry

     iteration # 11     ecut=    70.00 Ry     beta= 0.70
     Davidson diagonalization with overlap
     ethr =  8.99E-09,  avg # of iterations =  4.7

     total cpu time spent up to now is       70.9 secs

     total energy              =    -273.18846436 Ry
     estimated scf accuracy    <       0.00000053 Ry

     iteration # 12     ecut=    70.00 Ry     beta= 0.70
     Davidson diagonalization with overlap
     ethr =  1.25E-09,  avg # of iterations =  4.9

     total cpu time spent up to now is       71.7 secs

     total energy              =    -273.18846448 Ry
     estimated scf accuracy    <       0.00000073 Ry

     iteration # 13     ecut=    70.00 Ry     beta= 0.70
     Davidson diagonalization with overlap
     ethr =  1.25E-09,  avg # of iterations =  1.9

     total cpu time spent up to now is       72.2 secs

     total energy              =    -273.18846454 Ry
     estimated scf accuracy    <       0.00000002 Ry

     iteration # 14     ecut=    70.00 Ry     beta= 0.70
     Davidson diagonalization with overlap
     ethr =  5.14E-11,  avg # of iterations =  5.9

     total cpu time spent up to now is       73.1 secs

     total energy              =    -273.18846455 Ry
     estimated scf accuracy    <       0.00000002 Ry

     iteration # 15     ecut=    70.00 Ry     beta= 0.70
     Davidson diagonalization with overlap
     ethr =  5.14E-11,  avg # of iterations =  1.0

     total cpu time spent up to now is       73.6 secs

     End of self-consistent calculation

          k = 0.0000 0.0000 0.0000 ( 34913 PWs)   bands (ev):

   -59.5530 -58.8544 -34.6352 -34.5702 -34.5369 -34.2554 -33.8347 -33.8167
   -17.8798 -13.2748 -10.4645  -9.8639  -7.9656  -7.6820  -7.4345  -6.3940
    -4.6132  -4.3869  -4.2637  -3.8837  -3.4552  -1.9679  -0.7988  -0.6691
    -0.2104

          k = 0.0000 0.2802 0.0000 ( 34840 PWs)   bands (ev):

   -59.5499 -58.8502 -34.7072 -34.6089 -34.5176 -34.3287 -33.8356 -33.8201
   -17.0200 -12.9407 -10.8005 -10.5949  -8.0849  -7.5683  -6.5507  -6.4086
    -5.4150  -4.4688  -4.0663  -3.7170  -3.3314  -1.5350  -1.0173  -0.9955
     0.1735

          k = 0.0000 0.5605 0.0000 ( 34908 PWs)   bands (ev):

   -59.5450 -58.8435 -34.9058 -34.5632 -34.5084 -34.4348 -33.8696 -33.7991
   -15.1553 -12.3538 -11.4826 -11.0206  -8.9946  -7.9871  -7.0130  -5.9854
    -4.8904  -4.5940  -3.6618  -3.2595  -2.6967  -1.7557  -1.6538  -1.1270
    -0.4520

          k = 0.2000 0.0000 0.0000 ( 34795 PWs)   bands (ev):

   -59.5525 -58.8547 -34.6249 -34.5640 -34.5367 -34.2640 -33.8479 -33.8143
   -17.8469 -13.1657 -10.8709  -9.9166  -7.9935  -7.5731  -7.0430  -6.0382
    -4.9761  -4.8108  -4.0767  -3.7742  -3.0196  -1.7490  -1.4503  -0.6978
    -0.3325

          k = 0.2000 0.2802 0.0000 ( 34891 PWs)   bands (ev):

   -59.5497 -58.8505 -34.7310 -34.5806 -34.5118 -34.3383 -33.8421 -33.8159
   -16.9878 -12.8449 -11.0613 -10.6905  -7.9823  -7.5007  -6.5057  -6.0391
    -5.4437  -4.6681  -3.8232  -3.6348  -3.3915  -1.8771  -1.2791  -1.0895
     0.1194

          k = 0.2000 0.5605 0.0000 ( 34950 PWs)   bands (ev):

   -59.5449 -58.8436 -34.9316 -34.5478 -34.4962 -34.4454 -33.8579 -33.8010
   -15.1222 -12.2941 -11.5888 -11.1856  -8.7700  -7.9310  -7.0101  -5.8510
    -4.8330  -4.4980  -3.9145  -3.1860  -2.8997  -2.2032  -1.7449  -1.0857
    -0.3729

          k = 0.4000 0.0000 0.0000 ( 34767 PWs)   bands (ev):

   -59.5519 -58.8553 -34.6041 -34.5604 -34.5330 -34.2792 -33.8654 -33.8148
   -17.7940 -12.9025 -11.5331  -9.9613  -8.0350  -7.3280  -6.3904  -5.8026
    -5.6279  -4.6917  -3.6796  -3.2925  -3.1888  -2.5553  -1.5326  -0.6750
    -0.4061

          k = 0.4000 0.2802 0.0000 ( 34848 PWs)   bands (ev):

   -59.5492 -58.8509 -34.7552 -34.5546 -34.4962 -34.3538 -33.8497 -33.8124
   -16.9344 -12.5895 -11.6399 -10.7291  -7.8546  -7.2843  -6.2439  -5.8978
    -5.6664  -4.4089  -3.7767  -3.3744  -3.1793  -2.6174  -1.9906  -0.7600
    -0.2757

          k = 0.4000 0.5605 0.0000 ( 34919 PWs)   bands (ev):

   -59.5448 -58.8436 -34.9671 -34.5378 -34.4680 -34.4614 -33.8374 -33.8065
   -15.0660 -12.1164 -11.8439 -11.4107  -8.3742  -7.8745  -7.0503  -5.6136
    -4.7117  -4.4861  -4.0139  -3.5063  -2.8244  -2.5387  -2.1334  -1.0227
    -0.3986

     the Fermi energy is    -2.6891 ev

!    total energy              =    -273.18846454 Ry
     estimated scf accuracy    <          5.3E-09 Ry
     smearing contrib. (-TS)   =      -0.00199067 Ry
     internal energy E=F+TS    =    -273.18647387 Ry

     The total energy is F=E-TS. E is the sum of the following terms:
     one-electron contribution =   -2725.59241902 Ry
     hartree contribution      =    1358.31697754 Ry
     xc contribution           =     -41.03162505 Ry
     ewald contribution        =    1135.12059266 Ry

     convergence has been achieved in  15 iterations

     Forces acting on atoms (cartesian axes, Ry/au):

     atom    1 type  1   force =     0.00000000    0.14964103   -0.23266631
     atom    2 type  1   force =     0.00000000   -0.00151722   -0.08747241
     atom    3 type  2   force =    -0.01351756   -0.00210222    0.03366936
     atom    4 type  2   force =     0.01351756   -0.00210222    0.03366936
     atom    5 type  2   force =    -0.00939180   -0.07195969    0.12640000
     atom    6 type  2   force =     0.00939180   -0.07195969    0.12640000

     Total force =     0.359594     Total SCF correction =     0.000114
     Energy error            =      2.7E-04 Ry
     Gradient error          =      2.3E-01 Ry/Bohr

     number of scf cycles    =   4
     number of bfgs steps    =   3

     energy             old  =    -273.1887343301 Ry
     energy             new  =    -273.1884645441 Ry

     CASE: energy            _new > energy            _old

     new trust radius        =       0.0941816977 bohr
     new conv_thr            =       0.0000000100 Ry


ATOMIC_POSITIONS (alat)
Nb            0.5000000000       -0.0084736381        0.3801001939
Nb            0.0000000000        0.3568185705        0.1695270037
C             1.2478889770       -0.0000913348        0.0140794277
C             1.7521110230       -0.0000913348        0.0140794277
C             1.3462719735        0.3543462879        0.4111069735
C             1.6537280265        0.3543462879        0.4111069735



     Writing output data file /home/fernando/serse/temp/NB.save/
     NEW-OLD atomic charge density approx. for the potential

     total cpu time spent up to now is       74.3 secs

     Self-consistent Calculation

     iteration #  1     ecut=    70.00 Ry     beta= 0.70
     Davidson diagonalization with overlap
     c_bands:  1 eigenvalues not converged
     c_bands:  2 eigenvalues not converged
     c_bands:  1 eigenvalues not converged
     c_bands:  1 eigenvalues not converged
     c_bands:  1 eigenvalues not converged
     c_bands:  3 eigenvalues not converged
     c_bands:  1 eigenvalues not converged
     c_bands:  3 eigenvalues not converged
     ethr =  1.00E-06,  avg # of iterations = 20.8

     total cpu time spent up to now is       77.4 secs

     total energy              =    -269.76137425 Ry
     estimated scf accuracy    <       4.73166034 Ry

     iteration #  2     ecut=    70.00 Ry     beta= 0.70
     Davidson diagonalization with overlap
     ethr =  1.00E-02,  avg # of iterations =  9.9

     negative rho (up, down):  4.770E-06 0.000E+00

     total cpu time spent up to now is       78.7 secs

     total energy              =    -260.76452195 Ry
     estimated scf accuracy    <     166.41627440 Ry

     iteration #  3     ecut=    70.00 Ry     beta= 0.70
     Davidson diagonalization with overlap
     ethr =  1.00E-02,  avg # of iterations =  8.3

     negative rho (up, down):  4.071E-06 0.000E+00

     total cpu time spent up to now is       79.9 secs

     total energy              =    -272.74675304 Ry
     estimated scf accuracy    <       3.33799593 Ry

     iteration #  4     ecut=    70.00 Ry     beta= 0.70
     Davidson diagonalization with overlap
     ethr =  7.95E-03,  avg # of iterations =  2.0

     negative rho (up, down):  1.661E-06 0.000E+00

     total cpu time spent up to now is       80.4 secs

     total energy              =    -273.12157189 Ry
     estimated scf accuracy    <       0.09013024 Ry

     iteration #  5     ecut=    70.00 Ry     beta= 0.70
     Davidson diagonalization with overlap
     ethr =  2.15E-04,  avg # of iterations =  8.9

     negative rho (up, down):  1.247E-06 0.000E+00

     total cpu time spent up to now is       81.5 secs

     total energy              =    -273.19480573 Ry
     estimated scf accuracy    <       0.17583883 Ry

     iteration #  6     ecut=    70.00 Ry     beta= 0.70
     Davidson diagonalization with overlap
     ethr =  2.15E-04,  avg # of iterations =  1.9

     negative rho (up, down):  1.192E-07 0.000E+00

     total cpu time spent up to now is       82.1 secs

     total energy              =    -273.19268522 Ry
     estimated scf accuracy    <       0.06270163 Ry

     iteration #  7     ecut=    70.00 Ry     beta= 0.70
     Davidson diagonalization with overlap
     ethr =  1.49E-04,  avg # of iterations =  2.0

     total cpu time spent up to now is       82.6 secs

     total energy              =    -273.19385152 Ry
     estimated scf accuracy    <       0.01614202 Ry

     iteration #  8     ecut=    70.00 Ry     beta= 0.70
     Davidson diagonalization with overlap
     ethr =  3.84E-05,  avg # of iterations =  5.1

     total cpu time spent up to now is       83.3 secs

     total energy              =    -273.19126767 Ry
     estimated scf accuracy    <       0.01183330 Ry

     iteration #  9     ecut=    70.00 Ry     beta= 0.70
     Davidson diagonalization with overlap
     ethr =  2.82E-05,  avg # of iterations =  2.0

     total cpu time spent up to now is       83.9 secs

     total energy              =    -273.19134643 Ry
     estimated scf accuracy    <       0.00224029 Ry

     iteration # 10     ecut=    70.00 Ry     beta= 0.70
     Davidson diagonalization with overlap
     ethr =  5.33E-06,  avg # of iterations =  8.9

     total cpu time spent up to now is       84.7 secs

     total energy              =    -273.19148212 Ry
     estimated scf accuracy    <       0.00049517 Ry

     iteration # 11     ecut=    70.00 Ry     beta= 0.70
     Davidson diagonalization with overlap
     ethr =  1.18E-06,  avg # of iterations =  3.8

     total cpu time spent up to now is       85.4 secs

     total energy              =    -273.19153675 Ry
     estimated scf accuracy    <       0.00013074 Ry

     iteration # 12     ecut=    70.00 Ry     beta= 0.70
     Davidson diagonalization with overlap
     ethr =  3.11E-07,  avg # of iterations =  3.7

     total cpu time spent up to now is       86.0 secs

     total energy              =    -273.19155406 Ry
     estimated scf accuracy    <       0.00000170 Ry

     iteration # 13     ecut=    70.00 Ry     beta= 0.70
     Davidson diagonalization with overlap
     ethr =  4.04E-09,  avg # of iterations =  7.7

     total cpu time spent up to now is       87.0 secs

     total energy              =    -273.19155659 Ry
     estimated scf accuracy    <       0.00000201 Ry

     iteration # 14     ecut=    70.00 Ry     beta= 0.70
     Davidson diagonalization with overlap
     ethr =  4.04E-09,  avg # of iterations =  1.6

     total cpu time spent up to now is       87.5 secs

     total energy              =    -273.19155661 Ry
     estimated scf accuracy    <       0.00000031 Ry

     iteration # 15     ecut=    70.00 Ry     beta= 0.70
     Davidson diagonalization with overlap
     ethr =  7.45E-10,  avg # of iterations =  5.2

     total cpu time spent up to now is       88.3 secs

     total energy              =    -273.19155670 Ry
     estimated scf accuracy    <       0.00000029 Ry

     iteration # 16     ecut=    70.00 Ry     beta= 0.70
     Davidson diagonalization with overlap
     ethr =  6.83E-10,  avg # of iterations =  1.4

     total cpu time spent up to now is       88.8 secs

     total energy              =    -273.19155672 Ry
     estimated scf accuracy    <       0.00000003 Ry

     iteration # 17     ecut=    70.00 Ry     beta= 0.70
     Davidson diagonalization with overlap
     ethr =  6.51E-11,  avg # of iterations =  4.9

     total cpu time spent up to now is       89.5 secs

     End of self-consistent calculation

          k = 0.0000 0.0000 0.0000 ( 34913 PWs)   bands (ev):

   -59.5753 -58.9374 -34.6797 -34.6222 -34.5698 -34.2774 -33.9260 -33.8754
   -17.9430 -13.2747 -10.4678  -9.9837  -8.0190  -7.7512  -7.4413  -6.4937
    -4.7173  -4.4491  -4.3379  -3.7116  -3.5237  -1.9836  -0.8698  -0.7934
    -0.2213

          k = 0.0000 0.2802 0.0000 ( 34840 PWs)   bands (ev):

   -59.5722 -58.9333 -34.7620 -34.6498 -34.5469 -34.3504 -33.9108 -33.8985
   -17.0878 -12.9642 -10.8183 -10.6444  -8.1660  -7.6124  -6.5739  -6.5184
    -5.4773  -4.5304  -4.0456  -3.8752  -3.2033  -1.6400  -1.1609  -0.9195
     0.1081

          k = 0.0000 0.5605 0.0000 ( 34908 PWs)   bands (ev):

   -59.5672 -58.9268 -34.9616 -34.5968 -34.5345 -34.4566 -33.9406 -33.8893
   -15.2408 -12.4263 -11.5338 -10.9868  -9.0495  -8.0526  -7.0327  -6.0336
    -4.8798  -4.7377  -3.7076  -3.2780  -2.8782  -1.8852  -1.5881  -1.2083
    -0.4280

          k = 0.2000 0.0000 0.0000 ( 34795 PWs)   bands (ev):

   -59.5748 -58.9378 -34.6660 -34.6133 -34.5722 -34.2865 -33.9300 -33.8857
   -17.9063 -13.1650 -10.8924 -10.0152  -8.0465  -7.6350  -7.0848  -6.1044
    -5.0503  -4.7063  -4.2796  -3.7801  -3.1366  -1.8378  -1.3577  -0.7859
    -0.3832

          k = 0.2000 0.2802 0.0000 ( 34891 PWs)   bands (ev):

   -59.5719 -58.9337 -34.7874 -34.6164 -34.5419 -34.3620 -33.9136 -33.8987
   -17.0522 -12.8687 -11.0567 -10.7767  -8.0398  -7.5645  -6.5715  -6.1131
    -5.4591  -4.7273  -3.8994  -3.6482  -3.4196  -1.9545  -1.3771  -1.1198
     0.1075

          k = 0.2000 0.5605 0.0000 ( 34950 PWs)   bands (ev):

   -59.5671 -58.9269 -34.9908 -34.5768 -34.5225 -34.4707 -33.9273 -33.8899
   -15.2050 -12.3566 -11.6439 -11.1855  -8.8044  -7.9988  -7.0700  -5.8716
    -4.8299  -4.6117  -3.8782  -3.2635  -3.0436  -2.2920  -1.8304  -1.1964
    -0.3385

          k = 0.4000 0.0000 0.0000 ( 34767 PWs)   bands (ev):

   -59.5740 -58.9386 -34.6380 -34.5965 -34.5828 -34.3026 -33.9373 -33.9022
   -17.8472 -12.8970 -11.5686 -10.0517  -8.0914  -7.3796  -6.4589  -5.8496
    -5.5307  -4.8022  -3.8834  -3.3935  -3.2814  -2.6586  -1.6419  -0.6217
    -0.2381

          k = 0.4000 0.2802 0.0000 ( 34848 PWs)   bands (ev):

   -59.5714 -58.9342 -34.8130 -34.5834 -34.5277 -34.3805 -33.9164 -33.9015
   -16.9930 -12.6128 -11.6543 -10.8152  -7.8953  -7.3482  -6.3061  -5.9599
    -5.7127  -4.4365  -3.8097  -3.4916  -3.2188  -2.7305  -2.0869  -0.7649
    -0.2323

          k = 0.4000 0.5605 0.0000 ( 34919 PWs)   bands (ev):

   -59.5670 -58.9269 -35.0307 -34.5632 -34.4926 -34.4910 -33.9052 -33.8928
   -15.1440 -12.1604 -11.8733 -11.4904  -8.3828  -7.9438  -7.1670  -5.5588
    -4.7210  -4.5321  -4.0483  -3.6028  -2.8559  -2.6025  -2.3131  -1.1599
    -0.3999

     the Fermi energy is    -2.7896 ev

!    total energy              =    -273.19155672 Ry
     estimated scf accuracy    <          6.6E-10 Ry
     smearing contrib. (-TS)   =      -0.00209799 Ry
     internal energy E=F+TS    =    -273.18945874 Ry

     The total energy is F=E-TS. E is the sum of the following terms:
     one-electron contribution =   -2727.70129196 Ry
     hartree contribution      =    1359.27975118 Ry
     xc contribution           =     -41.01085059 Ry
     ewald contribution        =    1136.24293264 Ry

     convergence has been achieved in  17 iterations

     Forces acting on atoms (cartesian axes, Ry/au):

     atom    1 type  1   force =     0.00000000    0.08013757   -0.24286599
     atom    2 type  1   force =     0.00000000   -0.00232829   -0.11090740
     atom    3 type  2   force =    -0.02352762   -0.00127058    0.04404470
     atom    4 type  2   force =     0.02352762   -0.00127058    0.04404470
     atom    5 type  2   force =     0.00271349   -0.03763406    0.13284200
     atom    6 type  2   force =    -0.00271349   -0.03763406    0.13284200

     Total force =     0.347625     Total SCF correction =     0.000048
     Energy error            =      2.8E-03 Ry
     Gradient error          =      2.4E-01 Ry/Bohr

     number of scf cycles    =   5
     number of bfgs steps    =   3

     energy             old  =    -273.1887343301 Ry
     energy             new  =    -273.1915567225 Ry

     CASE: energy            _new < energy            _old


     WARNING: info= 10 for Hessian
     uphill step: resetting bfgs history

     new trust radius        =       0.2557458093 bohr
     new conv_thr            =       0.0000000100 Ry


ATOMIC_POSITIONS (alat)
Nb            0.5000000000        0.0000761933        0.3541889606
Nb            0.0000000000        0.3565701661        0.1576943569
C             1.2453788291       -0.0002268917        0.0187785311
C             1.7546211709       -0.0002268917        0.0187785311
C             1.3465614745        0.3503311313        0.4252798102
C             1.6534385255        0.3503311313        0.4252798102



     Writing output data file /home/fernando/serse/temp/NB.save/
     NEW-OLD atomic charge density approx. for the potential

     negative rho (up, down):  8.323E-07 0.000E+00

     total cpu time spent up to now is       90.2 secs

     Self-consistent Calculation

     iteration #  1     ecut=    70.00 Ry     beta= 0.70
     Davidson diagonalization with overlap
     ethr =  1.00E-06,  avg # of iterations = 30.9

     total cpu time spent up to now is       94.6 secs

     total energy              =    -228.79761581 Ry
     estimated scf accuracy    <      59.55181668 Ry

     iteration #  2     ecut=    70.00 Ry     beta= 0.70
     Davidson diagonalization with overlap
     ethr =  1.00E-02,  avg # of iterations = 14.6

     negative rho (up, down):  1.574E-05 0.000E+00

     total cpu time spent up to now is       96.9 secs

     total energy              =    -241.06657880 Ry
     estimated scf accuracy    <     469.22384865 Ry

     iteration #  3     ecut=    70.00 Ry     beta= 0.70
     Davidson diagonalization with overlap
     ethr =  1.00E-02,  avg # of iterations =  8.9

     negative rho (up, down):  1.891E-05 0.000E+00

     total cpu time spent up to now is       98.3 secs

     total energy              =    -272.97459361 Ry
     estimated scf accuracy    <      63.08803449 Ry

     iteration #  4     ecut=    70.00 Ry     beta= 0.70
     Davidson diagonalization with overlap
     ethr =  1.00E-02,  avg # of iterations =  5.9

     negative rho (up, down):  1.745E-05 0.000E+00

     total cpu time spent up to now is       99.2 secs

     total energy              =    -273.35030836 Ry
     estimated scf accuracy    <      16.37141605 Ry

     iteration #  5     ecut=    70.00 Ry     beta= 0.70
     Davidson diagonalization with overlap
     ethr =  1.00E-02,  avg # of iterations =  3.3

     negative rho (up, down):  1.077E-05 0.000E+00

     total cpu time spent up to now is       99.8 secs

     total energy              =    -272.08190111 Ry
     estimated scf accuracy    <      11.86753499 Ry

     iteration #  6     ecut=    70.00 Ry     beta= 0.70
     Davidson diagonalization with overlap
     ethr =  1.00E-02,  avg # of iterations =  5.3

     negative rho (up, down):  7.151E-06 0.000E+00

     total cpu time spent up to now is      100.6 secs

     total energy              =    -273.19024466 Ry
     estimated scf accuracy    <       0.98194309 Ry

     iteration #  7     ecut=    70.00 Ry     beta= 0.70
     Davidson diagonalization with overlap
     ethr =  2.34E-03,  avg # of iterations =  2.7

     negative rho (up, down):  2.586E-06 0.000E+00

     total cpu time spent up to now is      101.2 secs

     total energy              =    -273.42758812 Ry
     estimated scf accuracy    <       0.81433011 Ry

     iteration #  8     ecut=    70.00 Ry     beta= 0.70
     Davidson diagonalization with overlap
     ethr =  1.94E-03,  avg # of iterations =  3.4

     negative rho (up, down):  8.938E-08 0.000E+00

     total cpu time spent up to now is      101.8 secs

     total energy              =    -273.16479157 Ry
     estimated scf accuracy    <       2.47096177 Ry

     iteration #  9     ecut=    70.00 Ry     beta= 0.70
     Davidson diagonalization with overlap
     ethr =  1.94E-03,  avg # of iterations =  2.0

     negative rho (up, down):  7.019E-08 0.000E+00

     total cpu time spent up to now is      102.3 secs

     total energy              =    -273.25489374 Ry
     estimated scf accuracy    <       0.21753673 Ry

     iteration # 10     ecut=    70.00 Ry     beta= 0.70
     Davidson diagonalization with overlap
     ethr =  5.18E-04,  avg # of iterations =  5.4

     total cpu time spent up to now is      103.1 secs

     total energy              =    -273.27881344 Ry
     estimated scf accuracy    <       0.04882714 Ry

     iteration # 11     ecut=    70.00 Ry     beta= 0.70
     Davidson diagonalization with overlap
     ethr =  1.16E-04,  avg # of iterations =  5.9

     total cpu time spent up to now is      103.9 secs

     total energy              =    -273.28556581 Ry
     estimated scf accuracy    <       0.08293805 Ry

     iteration # 12     ecut=    70.00 Ry     beta= 0.70
     Davidson diagonalization with overlap
     ethr =  1.16E-04,  avg # of iterations =  2.2

     total cpu time spent up to now is      104.4 secs

     total energy              =    -273.29419627 Ry
     estimated scf accuracy    <       0.00110411 Ry

     iteration # 13     ecut=    70.00 Ry     beta= 0.70
     Davidson diagonalization with overlap
     ethr =  2.63E-06,  avg # of iterations =  9.6

     total cpu time spent up to now is      105.6 secs

     total energy              =    -273.29507459 Ry
     estimated scf accuracy    <       0.00063936 Ry

     iteration # 14     ecut=    70.00 Ry     beta= 0.70
     Davidson diagonalization with overlap
     ethr =  1.52E-06,  avg # of iterations =  2.0

     total cpu time spent up to now is      106.1 secs

     total energy              =    -273.29512193 Ry
     estimated scf accuracy    <       0.00004716 Ry

     iteration # 15     ecut=    70.00 Ry     beta= 0.70
     Davidson diagonalization with overlap
     ethr =  1.12E-07,  avg # of iterations =  5.7

     total cpu time spent up to now is      107.0 secs

     total energy              =    -273.29514357 Ry
     estimated scf accuracy    <       0.00004933 Ry

     iteration # 16     ecut=    70.00 Ry     beta= 0.70
     Davidson diagonalization with overlap
     ethr =  1.12E-07,  avg # of iterations =  1.0

     total cpu time spent up to now is      107.5 secs

     total energy              =    -273.29514145 Ry
     estimated scf accuracy    <       0.00002060 Ry

     iteration # 17     ecut=    70.00 Ry     beta= 0.70
     Davidson diagonalization with overlap
     ethr =  4.91E-08,  avg # of iterations =  2.1

     total cpu time spent up to now is      108.1 secs

     total energy              =    -273.29514230 Ry
     estimated scf accuracy    <       0.00000363 Ry

     iteration # 18     ecut=    70.00 Ry     beta= 0.70
     Davidson diagonalization with overlap
     ethr =  8.65E-09,  avg # of iterations =  5.2

     total cpu time spent up to now is      108.8 secs

     total energy              =    -273.29514311 Ry
     estimated scf accuracy    <       0.00000004 Ry

     iteration # 19     ecut=    70.00 Ry     beta= 0.70
     Davidson diagonalization with overlap
     ethr =  1.01E-10,  avg # of iterations =  7.0

     total cpu time spent up to now is      109.7 secs

     total energy              =    -273.29514314 Ry
     estimated scf accuracy    <       0.00000013 Ry

     iteration # 20     ecut=    70.00 Ry     beta= 0.70
     Davidson diagonalization with overlap
     ethr =  1.01E-10,  avg # of iterations =  3.4

     total cpu time spent up to now is      110.4 secs

     End of self-consistent calculation

          k = 0.0000 0.0000 0.0000 ( 34913 PWs)   bands (ev):

   -59.7713 -58.8331 -34.8324 -34.7404 -34.5731 -34.3584 -33.9013 -33.8178
   -17.8720 -13.4356 -10.6720 -10.0996  -7.9722  -7.5950  -7.4777  -7.0557
    -5.4117  -4.8400  -4.4944  -3.9514  -3.7791  -1.7244  -0.8940  -0.8416
     0.1762

          k = 0.0000 0.2802 0.0000 ( 34840 PWs)   bands (ev):

   -59.7682 -58.8288 -34.8053 -34.7582 -34.6254 -34.4773 -33.8880 -33.8366
   -17.0951 -13.1045 -10.9432 -10.7736  -8.2692  -7.6638  -6.8832  -6.5738
    -5.6533  -4.7687  -4.3000  -4.0998  -3.2061  -2.0470  -1.1545  -0.6933
    -0.1816

          k = 0.0000 0.5605 0.0000 ( 34908 PWs)   bands (ev):

   -59.7632 -58.8220 -34.8432 -34.7589 -34.6754 -34.6361 -33.8698 -33.8680
   -15.5223 -12.5220 -11.4890 -11.2951  -9.0229  -7.8001  -6.9220  -6.1830
    -5.1527  -4.9332  -3.9425  -3.7904  -2.7581  -1.6996  -1.5998  -1.0469
    -0.8051

          k = 0.2000 0.0000 0.0000 ( 34795 PWs)   bands (ev):

   -59.7709 -58.8334 -34.8191 -34.7420 -34.5569 -34.3751 -33.9003 -33.8336
   -17.8400 -13.3336 -11.0329 -10.1459  -7.9830  -7.4575  -7.2320  -6.6789
    -5.3178  -5.1586  -4.7939  -3.7923  -3.6030  -1.9854  -0.9388  -0.9102
    -0.1544

          k = 0.2000 0.2802 0.0000 ( 34891 PWs)   bands (ev):

   -59.7680 -58.8291 -34.8212 -34.7500 -34.6077 -34.4848 -33.8868 -33.8420
   -17.0666 -13.0117 -11.2158 -10.8332  -8.1512  -7.6184  -6.6904  -6.3953
    -5.6007  -4.9707  -4.2842  -3.7796  -3.4190  -2.1450  -1.6704  -0.8965
    -0.2008

          k = 0.2000 0.5605 0.0000 ( 34950 PWs)   bands (ev):

   -59.7632 -58.8221 -34.9039 -34.7378 -34.6802 -34.6003 -33.8752 -33.8520
   -15.5008 -12.4562 -11.5939 -11.4641  -8.7988  -7.7067  -6.8967  -6.0276
    -5.1131  -4.9660  -4.1133  -3.7391  -2.9165  -2.2061  -1.8722  -0.8668
    -0.6801

          k = 0.4000 0.0000 0.0000 ( 34767 PWs)   bands (ev):

   -59.7703 -58.8340 -34.7923 -34.7497 -34.5214 -34.4116 -33.8922 -33.8662
   -17.7886 -13.1028 -11.6039 -10.2170  -8.0046  -7.1211  -6.8372  -6.2089
    -5.6927  -5.1079  -4.9100  -3.7008  -3.3118  -2.7152  -1.9817  -0.6817
     0.5189

          k = 0.4000 0.2802 0.0000 ( 34848 PWs)   bands (ev):

   -59.7676 -58.8295 -34.8356 -34.7445 -34.5892 -34.4895 -33.8825 -33.8538
   -17.0192 -12.7798 -11.7354 -10.8850  -7.9632  -7.5093  -6.3482  -6.1987
    -5.7010  -4.6647  -4.5885  -3.6514  -3.2682  -2.7110  -2.3711  -0.6329
    -0.1872

          k = 0.4000 0.5605 0.0000 ( 34919 PWs)   bands (ev):

   -59.7631 -58.8221 -34.9631 -34.7307 -34.6964 -34.5452 -33.8766 -33.8342
   -15.4646 -12.2548 -11.9244 -11.6311  -8.4335  -7.5572  -6.9226  -5.7216
    -5.0796  -4.8181  -4.4215  -3.9575  -2.8941  -2.5557  -2.4347  -0.9573
    -0.3129

     the Fermi energy is    -2.7689 ev

!    total energy              =    -273.29514315 Ry
     estimated scf accuracy    <          5.3E-09 Ry
     smearing contrib. (-TS)   =      -0.00233298 Ry
     internal energy E=F+TS    =    -273.29281017 Ry

     The total energy is F=E-TS. E is the sum of the following terms:
     one-electron contribution =   -2733.23888123 Ry
     hartree contribution      =    1361.89978479 Ry
     xc contribution           =     -41.03821957 Ry
     ewald contribution        =    1139.08450584 Ry

     convergence has been achieved in  20 iterations

     Forces acting on atoms (cartesian axes, Ry/au):

     atom    1 type  1   force =     0.00000000   -0.07985684   -0.20079165
     atom    2 type  1   force =     0.00000000   -0.00374529   -0.06515657
     atom    3 type  2   force =    -0.03641153    0.00010968    0.01249372
     atom    4 type  2   force =     0.03641153    0.00010968    0.01249372
     atom    5 type  2   force =     0.02109457    0.04169138    0.12048039
     atom    6 type  2   force =    -0.02109457    0.04169138    0.12048039

     Total force =     0.295491     Total SCF correction =     0.000079
     Energy error            =      1.0E-01 Ry
     Gradient error          =      2.0E-01 Ry/Bohr

     number of scf cycles    =   6
     number of bfgs steps    =   4

     energy             old  =    -273.1915567225 Ry
     energy             new  =    -273.2951431534 Ry

     CASE: energy            _new < energy            _old

     new trust radius        =       0.2813203903 bohr
     new conv_thr            =       0.0000000100 Ry


ATOMIC_POSITIONS (alat)
Nb            0.5000000000       -0.0009610491        0.3241929776
Nb            0.0000000000        0.3561463682        0.1459823913
C             1.2412037030       -0.0002969941        0.0224282109
C             1.7587962970       -0.0002969941        0.0224282109
C             1.3483074260        0.3511317538        0.4424841047
C             1.6516925740        0.3511317538        0.4424841047



     Writing output data file /home/fernando/serse/temp/NB.save/
     NEW-OLD atomic charge density approx. for the potential

     negative rho (up, down):  1.003E-06 0.000E+00

     total cpu time spent up to now is      111.1 secs

     Self-consistent Calculation

     iteration #  1     ecut=    70.00 Ry     beta= 0.70
     Davidson diagonalization with overlap
     ethr =  1.00E-06,  avg # of iterations = 32.8

     total cpu time spent up to now is      115.7 secs

     total energy              =    -217.17859914 Ry
     estimated scf accuracy    <      75.23604225 Ry

     iteration #  2     ecut=    70.00 Ry     beta= 0.70
     Davidson diagonalization with overlap
     ethr =  1.00E-02,  avg # of iterations = 16.4

     negative rho (up, down):  1.800E-05 0.000E+00

     total cpu time spent up to now is      118.3 secs

     total energy              =    -237.85050354 Ry
     estimated scf accuracy    <     535.76545277 Ry

     iteration #  3     ecut=    70.00 Ry     beta= 0.70
     Davidson diagonalization with overlap
     ethr =  1.00E-02,  avg # of iterations =  9.8

     negative rho (up, down):  2.190E-05 0.000E+00

     total cpu time spent up to now is      119.8 secs

     total energy              =    -273.18206800 Ry
     estimated scf accuracy    <      75.37058507 Ry

     iteration #  4     ecut=    70.00 Ry     beta= 0.70
     Davidson diagonalization with overlap
     ethr =  1.00E-02,  avg # of iterations =  6.6

     negative rho (up, down):  2.156E-05 0.000E+00

     total cpu time spent up to now is      120.7 secs

     total energy              =    -273.72090006 Ry
     estimated scf accuracy    <      23.19001478 Ry

     iteration #  5     ecut=    70.00 Ry     beta= 0.70
     Davidson diagonalization with overlap
     ethr =  1.00E-02,  avg # of iterations =  3.8

     negative rho (up, down):  1.553E-05 0.000E+00

     total cpu time spent up to now is      121.3 secs

     total energy              =    -272.49419537 Ry
     estimated scf accuracy    <      16.41439794 Ry

     iteration #  6     ecut=    70.00 Ry     beta= 0.70
     Davidson diagonalization with overlap
     ethr =  1.00E-02,  avg # of iterations =  5.4

     negative rho (up, down):  9.425E-06 0.000E+00

     total cpu time spent up to now is      122.0 secs

     total energy              =    -273.56205804 Ry
     estimated scf accuracy    <       1.21779912 Ry

     iteration #  7     ecut=    70.00 Ry     beta= 0.70
     Davidson diagonalization with overlap
     ethr =  2.90E-03,  avg # of iterations =  2.0

     negative rho (up, down):  1.669E-06 0.000E+00

     total cpu time spent up to now is      122.6 secs

     total energy              =    -273.34284043 Ry
     estimated scf accuracy    <       2.71354677 Ry

     iteration #  8     ecut=    70.00 Ry     beta= 0.70
     Davidson diagonalization with overlap
     ethr =  2.90E-03,  avg # of iterations =  1.9

     negative rho (up, down):  6.391E-07 0.000E+00

     total cpu time spent up to now is      123.2 secs

     total energy              =    -273.26153895 Ry
     estimated scf accuracy    <       0.87621962 Ry

     iteration #  9     ecut=    70.00 Ry     beta= 0.70
     Davidson diagonalization with overlap
     ethr =  2.09E-03,  avg # of iterations =  3.8

     negative rho (up, down):  1.479E-07 0.000E+00

     total cpu time spent up to now is      123.8 secs

     total energy              =    -273.36667294 Ry
     estimated scf accuracy    <       0.08142484 Ry

     iteration # 10     ecut=    70.00 Ry     beta= 0.70
     Davidson diagonalization with overlap
     ethr =  1.94E-04,  avg # of iterations =  9.8

     total cpu time spent up to now is      124.8 secs

     total energy              =    -273.35765556 Ry
     estimated scf accuracy    <       0.14947960 Ry

     iteration # 11     ecut=    70.00 Ry     beta= 0.70
     Davidson diagonalization with overlap
     ethr =  1.94E-04,  avg # of iterations =  2.0

     total cpu time spent up to now is      125.4 secs

     total energy              =    -273.37414563 Ry
     estimated scf accuracy    <       0.00431907 Ry

     iteration # 12     ecut=    70.00 Ry     beta= 0.70
     Davidson diagonalization with overlap
     ethr =  1.03E-05,  avg # of iterations =  8.7

     total cpu time spent up to now is      126.4 secs

     total energy              =    -273.37485540 Ry
     estimated scf accuracy    <       0.01871784 Ry

     iteration # 13     ecut=    70.00 Ry     beta= 0.70
     Davidson diagonalization with overlap
     ethr =  1.03E-05,  avg # of iterations =  2.1

     negative rho (up, down):  7.194E-06 0.000E+00

     total cpu time spent up to now is      127.0 secs

     total energy              =    -273.37504617 Ry
     estimated scf accuracy    <       0.00410617 Ry

     iteration # 14     ecut=    70.00 Ry     beta= 0.70
     Davidson diagonalization with overlap
     ethr =  9.78E-06,  avg # of iterations =  2.1

     negative rho (up, down):  4.180E-07 0.000E+00

     total cpu time spent up to now is      127.5 secs

     total energy              =    -273.37504697 Ry
     estimated scf accuracy    <       0.00132492 Ry

     iteration # 15     ecut=    70.00 Ry     beta= 0.70
     Davidson diagonalization with overlap
     ethr =  3.15E-06,  avg # of iterations =  4.9

     total cpu time spent up to now is      128.2 secs

     total energy              =    -273.37515708 Ry
     estimated scf accuracy    <       0.00014700 Ry

     iteration # 16     ecut=    70.00 Ry     beta= 0.70
     Davidson diagonalization with overlap
     ethr =  3.50E-07,  avg # of iterations =  6.0

     total cpu time spent up to now is      129.1 secs

     total energy              =    -273.37523263 Ry
[...]
     xc contribution           =     -41.16063776 Ry
     ewald contribution        =    1145.12371110 Ry

     convergence has been achieved in  10 iterations

     Forces acting on atoms (cartesian axes, Ry/au):

     atom    1 type  1   force =     0.00000000   -0.00016317    0.00013279
     atom    2 type  1   force =     0.00000000    0.00001452   -0.00003416
     atom    3 type  2   force =    -0.00005380   -0.00000099    0.00003693
     atom    4 type  2   force =     0.00005380   -0.00000099    0.00003693
     atom    5 type  2   force =    -0.00030396    0.00007532   -0.00008625
     atom    6 type  2   force =     0.00030396    0.00007532   -0.00008625

     Total force =     0.000515     Total SCF correction =     0.000012
     Energy error            =      1.1E-06 Ry
     Gradient error          =      3.0E-04 Ry/Bohr

     number of scf cycles    =  29
     number of bfgs steps    =  27

     energy             old  =    -273.7539724914 Ry
     energy             new  =    -273.7539735861 Ry

     CASE: energy            _new < energy            _old

     new trust radius        =       0.0004586506 bohr
     new conv_thr            =            1.0E-10 Ry


ATOMIC_POSITIONS (alat)
Nb            0.5000000000       -0.0022733425        0.2154536174
Nb            0.0000000000        0.3545540071        0.2512253267
C             1.1378707316       -0.0022959214        0.0060509372
C             1.8621292684       -0.0022959214        0.0060509365
C             1.3621366804        0.3545830084        0.4606095905
C             1.6378633196        0.3545830084        0.4606095921



     Writing output data file /home/fernando/serse/temp/NB.save/
     NEW-OLD atomic charge density approx. for the potential

     total cpu time spent up to now is      455.0 secs

     Self-consistent Calculation

     iteration #  1     ecut=    70.00 Ry     beta= 0.70
     Davidson diagonalization with overlap
     ethr =  1.00E-06,  avg # of iterations =  2.0

     Threshold (ethr) on eigenvalues was too large:
     Diagonalizing with lowered threshold

     Davidson diagonalization with overlap
     ethr =  4.55E-08,  avg # of iterations =  2.0

     total cpu time spent up to now is      456.1 secs

     total energy              =    -273.75395949 Ry
     estimated scf accuracy    <       0.00002547 Ry

     iteration #  2     ecut=    70.00 Ry     beta= 0.70
     Davidson diagonalization with overlap
     ethr =  6.07E-08,  avg # of iterations =  6.0

     total cpu time spent up to now is      457.0 secs

     total energy              =    -273.75393549 Ry
     estimated scf accuracy    <       0.00028446 Ry

     iteration #  3     ecut=    70.00 Ry     beta= 0.70
     Davidson diagonalization with overlap
     ethr =  6.07E-08,  avg # of iterations =  5.7

     total cpu time spent up to now is      457.8 secs

     total energy              =    -273.75397297 Ry
     estimated scf accuracy    <       0.00000456 Ry

     iteration #  4     ecut=    70.00 Ry     beta= 0.70
     Davidson diagonalization with overlap
     ethr =  1.09E-08,  avg # of iterations =  3.4

     total cpu time spent up to now is      458.4 secs

     total energy              =    -273.75397357 Ry
     estimated scf accuracy    <       0.00000104 Ry

     iteration #  5     ecut=    70.00 Ry     beta= 0.70
     Davidson diagonalization with overlap
     ethr =  2.47E-09,  avg # of iterations =  2.6

     total cpu time spent up to now is      459.0 secs

     total energy              =    -273.75397371 Ry
     estimated scf accuracy    <       0.00000016 Ry

     iteration #  6     ecut=    70.00 Ry     beta= 0.70
     Davidson diagonalization with overlap
     ethr =  3.71E-10,  avg # of iterations =  4.8

     total cpu time spent up to now is      459.7 secs

     total energy              =    -273.75397374 Ry
     estimated scf accuracy    <       0.00000001 Ry

     iteration #  7     ecut=    70.00 Ry     beta= 0.70
     Davidson diagonalization with overlap
     ethr =  2.75E-11,  avg # of iterations =  4.9

     total cpu time spent up to now is      460.5 secs

     total energy              =    -273.75397375 Ry
     estimated scf accuracy    <          2.6E-09 Ry

     iteration #  8     ecut=    70.00 Ry     beta= 0.70
     Davidson diagonalization with overlap
     ethr =  6.10E-12,  avg # of iterations =  4.3

     total cpu time spent up to now is      461.2 secs

     total energy              =    -273.75397375 Ry
     estimated scf accuracy    <          7.7E-10 Ry

     iteration #  9     ecut=    70.00 Ry     beta= 0.70
     Davidson diagonalization with overlap
     ethr =  1.84E-12,  avg # of iterations =  2.0

     total cpu time spent up to now is      461.7 secs

     End of self-consistent calculation

          k = 0.0000 0.0000 0.0000 ( 34913 PWs)   bands (ev):

   -59.7844 -59.6808 -35.0221 -34.9196 -34.8253 -34.6693 -34.6218 -34.2803
   -18.0205 -17.6093 -10.4674  -9.2248  -9.1665  -8.3211  -7.9177  -7.2447
    -6.8852  -6.3474  -6.2803  -1.9066  -1.5175  -1.4736  -0.2212  -0.1714
    -0.1202

          k = 0.0000 0.2802 0.0000 ( 34840 PWs)   bands (ev):

   -59.7716 -59.6875 -34.9588 -34.9497 -34.7996 -34.7254 -34.6678 -34.3492
   -17.8451 -17.5268 -10.3404  -9.3195  -9.0864  -7.9638  -7.9440  -7.0436
    -6.8000  -6.3601  -6.2706  -3.1350  -2.3305  -1.2854  -1.1379  -1.0427
    -0.2763

          k = 0.0000 0.5605 0.0000 ( 34908 PWs)   bands (ev):

   -59.7408 -59.7087 -34.9896 -34.9001 -34.7615 -34.7470 -34.6981 -34.5319
   -17.5476 -17.4365 -10.0446  -9.6763  -8.6445  -7.9084  -7.5085  -7.1456
    -6.1364  -6.0539  -6.0344  -4.8952  -2.9448  -2.0558  -1.5360  -1.0719
    -0.6955

          k = 0.2000 0.0000 0.0000 ( 34795 PWs)   bands (ev):

   -59.7745 -59.6906 -34.9605 -34.8919 -34.8055 -34.6867 -34.6510 -34.3536
   -17.9275 -17.5993 -10.6455  -9.5424  -8.7171  -8.1296  -7.9002  -7.2906
    -7.0456  -6.4970  -5.8498  -2.6870  -2.5644  -1.5308  -1.2882  -0.5172
    -0.4600

          k = 0.2000 0.2802 0.0000 ( 34891 PWs)   bands (ev):

   -59.7636 -59.6957 -35.0291 -34.8047 -34.7840 -34.7833 -34.6816 -34.3717
   -17.7682 -17.5139 -10.6126  -9.7322  -8.5882  -7.8394  -7.7104  -7.1444
    -6.9219  -6.4815  -5.9480  -3.2537  -2.8550  -2.1932  -1.3927  -0.6220
     0.1316

          k = 0.2000 0.5605 0.0000 ( 34950 PWs)   bands (ev):

   -59.7378 -59.7118 -35.0748 -34.9840 -34.7422 -34.7027 -34.6424 -34.4747
   -17.5015 -17.4125 -10.4699 -10.1382  -8.1944  -7.5807  -7.3748  -7.0502
    -6.3665  -6.3031  -5.5653  -4.6195  -3.3245  -2.7397  -1.8279  -0.7168
    -0.4001

          k = 0.4000 0.0000 0.0000 ( 34767 PWs)   bands (ev):

   -59.7487 -59.7166 -34.8193 -34.8186 -34.7343 -34.7299 -34.7266 -34.5380
   -17.7398 -17.6174 -10.6490 -10.2094  -7.8659  -7.8380  -7.7406  -7.4066
    -7.3667  -6.8874  -4.7356  -3.5689  -3.5619  -3.1976  -1.3395  -0.9446
     0.3875

          k = 0.4000 0.2802 0.0000 ( 34848 PWs)   bands (ev):

   -59.7426 -59.7167 -35.0070 -34.9061 -34.7556 -34.7149 -34.6168 -34.4600
   -17.6134 -17.5183 -10.7540 -10.4029  -7.8511  -7.4606  -7.4242  -7.3544
    -7.1209  -6.8852  -5.0686  -4.1986  -3.1535  -3.0955  -1.0507  -1.0444
    -0.0028

          k = 0.4000 0.5605 0.0000 ( 34919 PWs)   bands (ev):

   -59.7297 -59.7198 -35.1387 -35.1009 -34.7298 -34.7147 -34.4927 -34.4316
   -17.4144 -17.3812 -10.8766 -10.7439  -7.6415  -7.4080  -7.1185  -6.9293
    -6.4259  -6.3956  -4.9084  -4.3118  -4.1869  -3.6832  -1.2676  -1.0917
    -0.1040

     the Fermi energy is    -2.8599 ev

!    total energy              =    -273.75397375 Ry
     estimated scf accuracy    <          8.5E-11 Ry
     smearing contrib. (-TS)   =      -0.00177676 Ry
     internal energy E=F+TS    =    -273.75219699 Ry

     The total energy is F=E-TS. E is the sum of the following terms:
     one-electron contribution =   -2744.28577722 Ry
     hartree contribution      =    1366.54356115 Ry
     xc contribution           =     -41.16092674 Ry
     ewald contribution        =    1145.15094582 Ry

     convergence has been achieved in   9 iterations

     Forces acting on atoms (cartesian axes, Ry/au):

     atom    1 type  1   force =     0.00000000   -0.00002478   -0.00002486
     atom    2 type  1   force =     0.00000000    0.00005018   -0.00006922
     atom    3 type  2   force =     0.00000906   -0.00001236    0.00002761
     atom    4 type  2   force =    -0.00000906   -0.00001236    0.00002761
     atom    5 type  2   force =    -0.00014057   -0.00000034    0.00001943
     atom    6 type  2   force =     0.00014057   -0.00000034    0.00001943

     Total force =     0.000225     Total SCF correction =     0.000014
     Energy error            =      1.6E-07 Ry
     Gradient error          =      1.4E-04 Ry/Bohr

     number of scf cycles    =  30
     number of bfgs steps    =  28

     energy             old  =    -273.7539735861 Ry
     energy             new  =    -273.7539737483 Ry

     CASE: energy            _new < energy            _old

     new trust radius        =       0.0002372438 bohr
     new conv_thr            =            1.0E-10 Ry


ATOMIC_POSITIONS (alat)
Nb            0.5000000000       -0.0022776697        0.2154592030
Nb            0.0000000000        0.3545576639        0.2512002809
C             1.1378722060       -0.0022987080        0.0060616136
C             1.8621277940       -0.0022987080        0.0060616130
C             1.3621282550        0.3545861303        0.4606086441
C             1.6378717450        0.3545861303        0.4606086458



     Writing output data file /home/fernando/serse/temp/NB.save/
     NEW-OLD atomic charge density approx. for the potential

     total cpu time spent up to now is      462.5 secs

     Self-consistent Calculation

     iteration #  1     ecut=    70.00 Ry     beta= 0.70
     Davidson diagonalization with overlap
     ethr =  1.00E-06,  avg # of iterations =  2.0

     Threshold (ethr) on eigenvalues was too large:
     Diagonalizing with lowered threshold

     Davidson diagonalization with overlap
     ethr =  2.17E-08,  avg # of iterations =  2.0

     total cpu time spent up to now is      463.6 secs

     total energy              =    -273.75396660 Ry
     estimated scf accuracy    <       0.00001162 Ry

     iteration #  2     ecut=    70.00 Ry     beta= 0.70
     Davidson diagonalization with overlap
     ethr =  2.77E-08,  avg # of iterations =  6.0

     total cpu time spent up to now is      464.5 secs

     total energy              =    -273.75395389 Ry
     estimated scf accuracy    <       0.00016024 Ry

     iteration #  3     ecut=    70.00 Ry     beta= 0.70
     Davidson diagonalization with overlap
     ethr =  2.77E-08,  avg # of iterations =  6.0

     total cpu time spent up to now is      465.3 secs

     total energy              =    -273.75397349 Ry
     estimated scf accuracy    <       0.00000087 Ry

     iteration #  4     ecut=    70.00 Ry     beta= 0.70
     Davidson diagonalization with overlap
     ethr =  2.08E-09,  avg # of iterations =  4.8

     total cpu time spent up to now is      466.0 secs

     total energy              =    -273.75397370 Ry
     estimated scf accuracy    <       0.00000066 Ry

     iteration #  5     ecut=    70.00 Ry     beta= 0.70
     Davidson diagonalization with overlap
     ethr =  1.56E-09,  avg # of iterations =  2.4

     total cpu time spent up to now is      466.6 secs

     total energy              =    -273.75397374 Ry
     estimated scf accuracy    <       0.00000014 Ry

     iteration #  6     ecut=    70.00 Ry     beta= 0.70
     Davidson diagonalization with overlap
     ethr =  3.22E-10,  avg # of iterations =  5.2

     total cpu time spent up to now is      467.3 secs

     total energy              =    -273.75397377 Ry
     estimated scf accuracy    <       0.00000002 Ry

     iteration #  7     ecut=    70.00 Ry     beta= 0.70
     Davidson diagonalization with overlap
     ethr =  4.67E-11,  avg # of iterations =  2.7

     total cpu time spent up to now is      467.9 secs

     total energy              =    -273.75397377 Ry
     estimated scf accuracy    <          6.0E-09 Ry

     iteration #  8     ecut=    70.00 Ry     beta= 0.70
     Davidson diagonalization with overlap
     ethr =  1.42E-11,  avg # of iterations =  5.2

     total cpu time spent up to now is      468.6 secs

     total energy              =    -273.75397377 Ry
     estimated scf accuracy    <          2.3E-10 Ry

     iteration #  9     ecut=    70.00 Ry     beta= 0.70
     Davidson diagonalization with overlap
     ethr =  5.38E-13,  avg # of iterations =  5.1

     total cpu time spent up to now is      469.4 secs

     total energy              =    -273.75397377 Ry
     estimated scf accuracy    <          2.8E-10 Ry

     iteration # 10     ecut=    70.00 Ry     beta= 0.70
     Davidson diagonalization with overlap
     ethr =  5.38E-13,  avg # of iterations =  2.3

     total cpu time spent up to now is      470.0 secs

     End of self-consistent calculation

          k = 0.0000 0.0000 0.0000 ( 34913 PWs)   bands (ev):

   -59.7844 -59.6808 -35.0222 -34.9197 -34.8253 -34.6693 -34.6218 -34.2803
   -18.0204 -17.6091 -10.4676  -9.2247  -9.1667  -8.3210  -7.9177  -7.2449
    -6.8851  -6.3473  -6.2806  -1.9063  -1.5173  -1.4731  -0.2207  -0.1720
    -0.1210

          k = 0.0000 0.2802 0.0000 ( 34840 PWs)   bands (ev):

   -59.7716 -59.6875 -34.9588 -34.9497 -34.7996 -34.7254 -34.6678 -34.3492
   -17.8449 -17.5266 -10.3406  -9.3197  -9.0864  -7.9637  -7.9438  -7.0436
    -6.8002  -6.3603  -6.2706  -3.1348  -2.3301  -1.2852  -1.1381  -1.0433
    -0.2759

          k = 0.0000 0.5605 0.0000 ( 34908 PWs)   bands (ev):

   -59.7408 -59.7087 -34.9897 -34.9001 -34.7615 -34.7470 -34.6981 -34.5319
   -17.5473 -17.4362 -10.0449  -9.6766  -8.6445  -7.9082  -7.5083  -7.1454
    -6.1364  -6.0540  -6.0343  -4.8951  -2.9448  -2.0558  -1.5362  -1.0724
    -0.6956

          k = 0.2000 0.0000 0.0000 ( 34795 PWs)   bands (ev):

   -59.7745 -59.6906 -34.9605 -34.8919 -34.8055 -34.6867 -34.6510 -34.3536
   -17.9273 -17.5991 -10.6456  -9.5425  -8.7171  -8.1296  -7.9002  -7.2907
    -7.0456  -6.4969  -5.8502  -2.6869  -2.5644  -1.5314  -1.2881  -0.5167
    -0.4596

          k = 0.2000 0.2802 0.0000 ( 34891 PWs)   bands (ev):

   -59.7636 -59.6957 -35.0291 -34.8047 -34.7840 -34.7833 -34.6816 -34.3717
   -17.7680 -17.5137 -10.6128  -9.7323  -8.5883  -7.8392  -7.7104  -7.1443
    -6.9220  -6.4815  -5.9483  -3.2536  -2.8552  -2.1932  -1.3925  -0.6216
     0.1314

          k = 0.2000 0.5605 0.0000 ( 34950 PWs)   bands (ev):

   -59.7378 -59.7119 -35.0748 -34.9840 -34.7422 -34.7027 -34.6424 -34.4747
   -17.5013 -17.4122 -10.4701 -10.1385  -8.1944  -7.5806  -7.3745  -7.0501
    -6.3665  -6.3031  -5.5654  -4.6195  -3.3246  -2.7397  -1.8280  -0.7170
    -0.4002

          k = 0.4000 0.0000 0.0000 ( 34767 PWs)   bands (ev):

   -59.7487 -59.7166 -34.8193 -34.8186 -34.7343 -34.7300 -34.7267 -34.5380
   -17.7397 -17.6172 -10.6491 -10.2094  -7.8659  -7.8380  -7.7406  -7.4066
    -7.3668  -6.8875  -4.7360  -3.5690  -3.5619  -3.1982  -1.3391  -0.9440
     0.3878

          k = 0.4000 0.2802 0.0000 ( 34848 PWs)   bands (ev):

   -59.7426 -59.7167 -35.0070 -34.9061 -34.7556 -34.7150 -34.6168 -34.4600
   -17.6132 -17.5181 -10.7541 -10.4030  -7.8512  -7.4606  -7.4243  -7.3542
    -7.1210  -6.8852  -5.0689  -4.1989  -3.1536  -3.0955  -1.0506  -1.0441
    -0.0026

          k = 0.4000 0.5605 0.0000 ( 34919 PWs)   bands (ev):

   -59.7297 -59.7198 -35.1387 -35.1010 -34.7299 -34.7148 -34.4927 -34.4316
   -17.4141 -17.3809 -10.8768 -10.7441  -7.6414  -7.4079  -7.1185  -6.9293
    -6.4258  -6.3954  -4.9086  -4.3120  -4.1870  -3.6833  -1.2677  -1.0919
    -0.1042

     the Fermi energy is    -2.8600 ev

!    total energy              =    -273.75397377 Ry
     estimated scf accuracy    <          2.3E-11 Ry
     smearing contrib. (-TS)   =      -0.00177640 Ry
     internal energy E=F+TS    =    -273.75219737 Ry

     The total energy is F=E-TS. E is the sum of the following terms:
     one-electron contribution =   -2744.29762072 Ry
     hartree contribution      =    1366.54946445 Ry
     xc contribution           =     -41.16093429 Ry
     ewald contribution        =    1145.15689319 Ry

     convergence has been achieved in  10 iterations

     Forces acting on atoms (cartesian axes, Ry/au):

     atom    1 type  1   force =     0.00000000    0.00000162    0.00001977
     atom    2 type  1   force =     0.00000000    0.00002626    0.00004069
     atom    3 type  2   force =     0.00001479   -0.00000451   -0.00001960
     atom    4 type  2   force =    -0.00001479   -0.00000451   -0.00001960
     atom    5 type  2   force =    -0.00003320   -0.00000943   -0.00001063
     atom    6 type  2   force =     0.00003320   -0.00000943   -0.00001063

     Total force =     0.000081     Total SCF correction =     0.000007
     Energy error            =      1.9E-08 Ry
     Gradient error          =      4.1E-05 Ry/Bohr

     bfgs converged in  31 scf cycles and  29 bfgs steps
     (criteria: energy <  1.0E-05 Ry, force <  1.0E-04 Ry/Bohr)

     End of BFGS Geometry Optimization

     Final energy             =    -273.7539737674 Ry

     File /home/fernando/serse/temp/NB.bfgs deleted, as requested
Begin final coordinates

ATOMIC_POSITIONS (alat)
Nb            0.5000000000       -0.0022776697        0.2154592030
Nb            0.0000000000        0.3545576639        0.2512002809
C             1.1378722060       -0.0022987080        0.0060616136
C             1.8621277940       -0.0022987080        0.0060616130
C             1.3621282550        0.3545861303        0.4606086441
C             1.6378717450        0.3545861303        0.4606086458
End final coordinates



     Writing output data file /home/fernando/serse/temp/NB.save/
 
     init_run     :      0.67s CPU      0.72s WALL (       1 calls)
     electrons    :    439.08s CPU    455.09s WALL (      31 calls)
     update_pot   :      7.07s CPU      7.10s WALL (      30 calls)
     forces       :      6.34s CPU      6.38s WALL (      31 calls)

     Called by init_run:
     wfcinit      :      0.18s CPU      0.19s WALL (       1 calls)
     potinit      :      0.16s CPU      0.17s WALL (       1 calls)
     hinit0       :      0.16s CPU      0.16s WALL (       1 calls)

     Called by electrons:
     c_bands      :    382.04s CPU    387.38s WALL (     481 calls)
     sum_band     :     38.66s CPU     39.24s WALL (     481 calls)
     v_of_rho     :     13.11s CPU     13.28s WALL (     510 calls)
     mix_rho      :      3.92s CPU      3.96s WALL (     481 calls)

     Called by c_bands:
     init_us_2    :      5.86s CPU      6.07s WALL (    8946 calls)
     cegterg      :    362.14s CPU    366.92s WALL (    4409 calls)

     Called by *egterg:
     cdiaghg      :     29.80s CPU     30.04s WALL (   30137 calls)
     h_psi        :    257.47s CPU    261.51s WALL (   30514 calls)
     g_psi        :      2.23s CPU      2.25s WALL (   26096 calls)

     Called by h_psi:
     h_psi:calbec :     20.10s CPU     20.40s WALL (   30514 calls)
     vloc_psi     :    215.53s CPU    219.11s WALL (   30514 calls)
     add_vuspsi   :     18.20s CPU     18.35s WALL (   30514 calls)

     General routines
     calbec       :     20.67s CPU     20.99s WALL (   31630 calls)
     fft          :      6.05s CPU      6.10s WALL (    6121 calls)
     ffts         :      0.59s CPU      0.61s WALL (     991 calls)
     fftw         :    215.53s CPU    219.11s WALL (  904909 calls)
     interpolate  :      1.03s CPU      1.05s WALL (     510 calls)
 
     Parallel routines
 
     PWSCF        :   7m33.66s CPU   7m55.14s WALL

 
   This run was terminated on:  17:55:36  16Jan2025            

=------------------------------------------------------------------------------=
   JOB DONE.
=------------------------------------------------------------------------------=
