
     Program PWSCF v.6.8 starts on 29Jan2025 at 12:26:33 

     This program is part of the open-source Quantum ESPRESSO suite
     for quantum simulation of materials; please cite
         "P. Giannozzi et al., J. Phys.:Condens. Matter 21 395502 (2009);
         "P. Giannozzi et al., J. Phys.:Condens. Matter 29 465901 (2017);
         "P. Giannozzi et al., J. Chem. Phys. 152 154105 (2020);
          URL http://www.quantum-espresso.org", 
     in publications or presentations arising from this work. More details at
     http://www.quantum-espresso.org/quote

     Parallel version (MPI & OpenMP), running on      24 processor cores
     Number of MPI processes:                24
     Threads/MPI process:                     1

     MPI processes distributed on     1 nodes
     R & G space division:  proc/nbgrp/npool/nimage =      24
     184734 MiB available memory on the printing compute node when the environment starts
 
     Waiting for input...
     Reading input from standard input

     Current dimensions of program PWSCF are:
     Max number of different atomic species (ntypx) = 10
     Max number of k-points (npk) =  40000
     Max angular momentum in pseudopotentials (lmaxx) =  4
     Message from routine setup:
     no reason to have ecutrho>4*ecutwfc

     Subspace diagonalization in iterative solution of the eigenvalue problem:
     a serial algorithm will be used

 
     Parallelization info
     --------------------
     sticks:   dense  smooth     PW     G-vecs:    dense   smooth      PW
     Min         327     294     77                78113    66678    8967
     Max         328     295     78                78124    66688    8974
     Sum        7863    7057   1861              1874849  1600419  215269
 
     Using Slab Decomposition
 

     Title: 
     NB relax                                                                   


     bravais-lattice index     =            8
     lattice parameter (alat)  =      18.5949  a.u.
     unit-cell volume          =   13877.5695 (a.u.)^3
     number of atoms/cell      =           24
     number of atomic types    =            2
     number of electrons       =       168.00
     number of Kohn-Sham states=          101
     kinetic-energy cutoff     =      90.0000  Ry
     charge density cutoff     =     400.0000  Ry
     scf convergence threshold =      1.0E-08
     mixing beta               =       0.7000
     number of iterations used =            8  plain     mixing
     energy convergence thresh.=      1.0E-05
     force convergence thresh. =      1.0E-04
     Exchange-correlation= SLA-PW-PBX-PBC
                           (   1   4   3   4   0   0   0)
     nstep                     =          100


     celldm(1)=  18.594910  celldm(2)=   0.713710  celldm(3)=   3.024194
     celldm(4)=   0.000000  celldm(5)=   0.000000  celldm(6)=   0.000000

     crystal axes: (cart. coord. in units of alat)
               a(1) = (   1.000000   0.000000   0.000000 )  
               a(2) = (   0.000000   0.713710   0.000000 )  
               a(3) = (   0.000000   0.000000   3.024194 )  

     reciprocal axes: (cart. coord. in units 2 pi/alat)
               b(1) = (  1.000000  0.000000  0.000000 )  
               b(2) = (  0.000000  1.401130  0.000000 )  
               b(3) = (  0.000000  0.000000  0.330667 )  


     PseudoPot. # 1 for Nb read from file:
     /home/fernando/serse/pseudos/Nb.pbe-sp-hgh.UPF
     MD5 check sum: 9806bd744c6e87f68d8a90a6c9e3b9fe
     Pseudo is Norm-conserving, Zval = 13.0
     Generated in analytical, separable form
     Using radial grid of 1227 points,  6 beta functions with: 
                l(1) =   0
                l(2) =   0
                l(3) =   1
                l(4) =   1
                l(5) =   2
                l(6) =   2

     PseudoPot. # 2 for C  read from file:
     /home/fernando/serse/pseudos/C.pbe-hgh.UPF
     MD5 check sum: ca26ff84b356733038fc2f5c468d1892
     Pseudo is Norm-conserving, Zval =  4.0
     Generated in analytical, separable form
     Using radial grid of 1073 points,  1 beta functions with: 
                l(1) =   0

     atomic species   valence    mass     pseudopotential
        Nb            13.00    92.90638     Nb( 1.00)
        C              4.00    12.01100     C ( 1.00)

     No symmetry found



   Cartesian axes

     site n.     atom                  positions (alat units)
         1           Nb  tau(   1) = (   0.0037189   0.1808829   0.1260840  )
         2           Nb  tau(   2) = (   0.5037326   0.1808850   0.1262172  )
         3           Nb  tau(   3) = (   0.2537058   0.3593399   0.1090438  )
         4           Nb  tau(   4) = (   0.7537471   0.3593418   0.1090777  )
         5           Nb  tau(   5) = (   0.0037195   0.5377452   0.1261030  )
         6           Nb  tau(   6) = (   0.5037329   0.5377468   0.1262373  )
         7           Nb  tau(   7) = (   0.2537062   0.7162010   0.1090621  )
         8           Nb  tau(   8) = (   0.7537484   0.7162025   0.1090945  )
         9           C   tau(   9) = (   0.1843732   0.1809293   0.2346987  )
        10           C   tau(  10) = (   0.3229861   0.1809274   0.2347104  )
        11           C   tau(  11) = (   0.6844586   0.1809332   0.2347426  )
        12           C   tau(  12) = (   0.8230736   0.1809260   0.2347138  )
        13           C   tau(  13) = (   0.0730254   0.3593101   0.0004423  )
        14           C   tau(  14) = (   0.4344313   0.3593094   0.0005595  )
        15           C   tau(  15) = (   0.5730395   0.3593136   0.0005628  )
        16           C   tau(  16) = (   0.1843750   0.5377792   0.2347108  )
        17           C   tau(  17) = (   0.3229824   0.5377728   0.2347216  )
        18           C   tau(  18) = (   0.6844636   0.5377804   0.2347518  )
        19           C   tau(  19) = (   0.8230732   0.5377771   0.2347250  )
        20           C   tau(  20) = (   0.9344168   0.3593067   0.0004523  )
        21           C   tau(  21) = (   0.0730271   0.7161572   0.0004523  )
        22           C   tau(  22) = (   0.4344325   0.7161560   0.0005685  )
        23           C   tau(  23) = (   0.5730407   0.7161603   0.0005705  )
        24           C   tau(  24) = (   0.9344178   0.7161544   0.0004612  )

     number of k points=    13  Gaussian smearing, width (Ry)=  0.0100
                       cart. coord. in units 2pi/alat
        k(    1) = (   0.0000000   0.0000000   0.0000000), wk =   0.0800000
        k(    2) = (   0.0000000   0.2802260   0.0000000), wk =   0.1600000
        k(    3) = (   0.0000000   0.5604520   0.0000000), wk =   0.1600000
        k(    4) = (   0.2000000   0.0000000   0.0000000), wk =   0.1600000
        k(    5) = (   0.2000000   0.2802260   0.0000000), wk =   0.1600000
        k(    6) = (   0.2000000   0.5604520   0.0000000), wk =   0.1600000
        k(    7) = (   0.4000000   0.0000000   0.0000000), wk =   0.1600000
        k(    8) = (   0.4000000   0.2802260   0.0000000), wk =   0.1600000
        k(    9) = (   0.4000000   0.5604520   0.0000000), wk =   0.1600000
        k(   10) = (  -0.2000000   0.2802260   0.0000000), wk =   0.1600000
        k(   11) = (  -0.2000000   0.5604520   0.0000000), wk =   0.1600000
        k(   12) = (  -0.4000000   0.2802260   0.0000000), wk =   0.1600000
        k(   13) = (  -0.4000000   0.5604520   0.0000000), wk =   0.1600000

     Dense  grid:  1874849 G-vectors     FFT dimensions: ( 120,  90, 360)

     Smooth grid:  1600419 G-vectors     FFT dimensions: ( 120,  81, 360)

     Estimated max dynamical RAM per process >     302.85 MB

     Estimated total dynamical RAM >       7.10 GB

     Initial potential from superposition of free atoms

     starting charge   63.99933, renormalised to  168.00000

     negative rho (up, down):  4.251E-05 0.000E+00
     Starting wfcs are   64 randomized atomic wfcs +   37 random wfcs

     total cpu time spent up to now is       13.9 secs

     Self-consistent Calculation

     iteration #  1     ecut=    90.00 Ry     beta= 0.70
     Davidson diagonalization with overlap
     c_bands:  1 eigenvalues not converged
     c_bands:  1 eigenvalues not converged
     ethr =  1.00E-02,  avg # of iterations = 17.1

     total cpu time spent up to now is      162.2 secs

     total energy              =    -679.80161167 Ry
     estimated scf accuracy    <    1709.21183980 Ry

     iteration #  2     ecut=    90.00 Ry     beta= 0.70
     Davidson diagonalization with overlap
     ethr =  1.00E-02,  avg # of iterations = 14.8

     total cpu time spent up to now is      301.1 secs

     total energy              =    -693.05905028 Ry
     estimated scf accuracy    <     982.50089708 Ry

     iteration #  3     ecut=    90.00 Ry     beta= 0.70
     Davidson diagonalization with overlap
     ethr =  1.00E-02,  avg # of iterations = 17.1

     total cpu time spent up to now is      453.6 secs

     total energy              =   -1097.41386895 Ry
     estimated scf accuracy    <     222.77668646 Ry

     iteration #  4     ecut=    90.00 Ry     beta= 0.70
     Davidson diagonalization with overlap
     ethr =  1.00E-02,  avg # of iterations =  8.2

     total cpu time spent up to now is      514.8 secs

     total energy              =   -1107.34965368 Ry
     estimated scf accuracy    <      32.36010811 Ry

     iteration #  5     ecut=    90.00 Ry     beta= 0.70
     Davidson diagonalization with overlap
     ethr =  1.00E-02,  avg # of iterations =  2.4

     total cpu time spent up to now is      553.2 secs

     total energy              =   -1107.93691070 Ry
     estimated scf accuracy    <      43.47575497 Ry

     iteration #  6     ecut=    90.00 Ry     beta= 0.70
     Davidson diagonalization with overlap
     ethr =  1.00E-02,  avg # of iterations =  1.0

     total cpu time spent up to now is      584.4 secs

     total energy              =   -1103.66529373 Ry
     estimated scf accuracy    <      36.18944319 Ry

     iteration #  7     ecut=    90.00 Ry     beta= 0.70
     Davidson diagonalization with overlap
     ethr =  1.00E-02,  avg # of iterations =  1.0

     total cpu time spent up to now is      615.7 secs

     total energy              =   -1100.35332457 Ry
     estimated scf accuracy    <      24.69646737 Ry

     iteration #  8     ecut=    90.00 Ry     beta= 0.70
     Davidson diagonalization with overlap
     ethr =  1.00E-02,  avg # of iterations =  1.1

     total cpu time spent up to now is      647.1 secs

     total energy              =   -1098.98862669 Ry
     estimated scf accuracy    <      15.52590693 Ry

     iteration #  9     ecut=    90.00 Ry     beta= 0.70
     Davidson diagonalization with overlap
     ethr =  9.24E-03,  avg # of iterations =  1.1

     total cpu time spent up to now is      678.7 secs

     total energy              =   -1097.91722510 Ry
     estimated scf accuracy    <      10.52301913 Ry

     iteration # 10     ecut=    90.00 Ry     beta= 0.70
     Davidson diagonalization with overlap
     ethr =  6.26E-03,  avg # of iterations =  1.4

     total cpu time spent up to now is      710.7 secs

     total energy              =   -1093.38037699 Ry
     estimated scf accuracy    <       8.04836503 Ry

     iteration # 11     ecut=    90.00 Ry     beta= 0.70
     Davidson diagonalization with overlap
     ethr =  4.79E-03,  avg # of iterations =  5.3

     total cpu time spent up to now is      753.3 secs

     total energy              =   -1095.28228115 Ry
     estimated scf accuracy    <       0.86499281 Ry

     iteration # 12     ecut=    90.00 Ry     beta= 0.70
     Davidson diagonalization with overlap
     ethr =  5.15E-04,  avg # of iterations =  8.3

     total cpu time spent up to now is      802.9 secs

     total energy              =   -1095.47762205 Ry
     estimated scf accuracy    <       0.95693744 Ry

     iteration # 13     ecut=    90.00 Ry     beta= 0.70
     Davidson diagonalization with overlap
     ethr =  5.15E-04,  avg # of iterations =  1.0

     total cpu time spent up to now is      839.1 secs

     total energy              =   -1094.85236103 Ry
     estimated scf accuracy    <       1.10645569 Ry

     iteration # 14     ecut=    90.00 Ry     beta= 0.70
     Davidson diagonalization with overlap
     ethr =  5.15E-04,  avg # of iterations =  5.0

     total cpu time spent up to now is      888.1 secs

     total energy              =   -1095.10219902 Ry
     estimated scf accuracy    <       0.83477940 Ry

     iteration # 15     ecut=    90.00 Ry     beta= 0.70
     Davidson diagonalization with overlap
     ethr =  4.97E-04,  avg # of iterations =  2.0

     total cpu time spent up to now is      924.5 secs

     total energy              =   -1095.23333687 Ry
     estimated scf accuracy    <       0.02256607 Ry

     iteration # 16     ecut=    90.00 Ry     beta= 0.70
     Davidson diagonalization with overlap
     c_bands:  2 eigenvalues not converged
     c_bands:  1 eigenvalues not converged
     c_bands:  1 eigenvalues not converged
     ethr =  1.34E-05,  avg # of iterations = 12.3

     total cpu time spent up to now is      987.8 secs

     total energy              =   -1095.24555512 Ry
     estimated scf accuracy    <       0.02599603 Ry

     iteration # 17     ecut=    90.00 Ry     beta= 0.70
     Davidson diagonalization with overlap
     c_bands:  2 eigenvalues not converged
     c_bands:  1 eigenvalues not converged
     ethr =  1.34E-05,  avg # of iterations = 12.3

     total cpu time spent up to now is     1037.5 secs

     total energy              =   -1095.24400841 Ry
     estimated scf accuracy    <       0.08359208 Ry

     iteration # 18     ecut=    90.00 Ry     beta= 0.70
     Davidson diagonalization with overlap
     ethr =  1.34E-05,  avg # of iterations =  3.4

     total cpu time spent up to now is     1077.8 secs

     total energy              =   -1095.24967022 Ry
     estimated scf accuracy    <       0.00242509 Ry

     iteration # 19     ecut=    90.00 Ry     beta= 0.70
     Davidson diagonalization with overlap
     c_bands:  1 eigenvalues not converged
     c_bands:  1 eigenvalues not converged
     c_bands:  2 eigenvalues not converged
     ethr =  1.44E-06,  avg # of iterations = 13.5

     total cpu time spent up to now is     1132.6 secs

     total energy              =   -1095.25030899 Ry
     estimated scf accuracy    <       0.00115152 Ry

     iteration # 20     ecut=    90.00 Ry     beta= 0.70
     Davidson diagonalization with overlap
     ethr =  6.85E-07,  avg # of iterations =  3.6

     total cpu time spent up to now is     1169.3 secs

     total energy              =   -1095.25036844 Ry
     estimated scf accuracy    <       0.00116089 Ry

     iteration # 21     ecut=    90.00 Ry     beta= 0.70
     Davidson diagonalization with overlap
     ethr =  6.85E-07,  avg # of iterations =  2.1

     total cpu time spent up to now is     1203.0 secs

     total energy              =   -1095.25043490 Ry
     estimated scf accuracy    <       0.00032541 Ry

     iteration # 22     ecut=    90.00 Ry     beta= 0.70
     Davidson diagonalization with overlap
     ethr =  1.94E-07,  avg # of iterations =  2.2

     total cpu time spent up to now is     1238.8 secs

     total energy              =   -1095.25047407 Ry
     estimated scf accuracy    <       0.00005001 Ry

     iteration # 23     ecut=    90.00 Ry     beta= 0.70
     Davidson diagonalization with overlap
     ethr =  2.98E-08,  avg # of iterations =  5.5

     total cpu time spent up to now is     1281.7 secs

     total energy              =   -1095.25048370 Ry
     estimated scf accuracy    <       0.00001426 Ry

     iteration # 24     ecut=    90.00 Ry     beta= 0.70
     Davidson diagonalization with overlap
     ethr =  8.49E-09,  avg # of iterations =  4.2

     total cpu time spent up to now is     1329.1 secs

     total energy              =   -1095.25048588 Ry
     estimated scf accuracy    <       0.00000460 Ry

     iteration # 25     ecut=    90.00 Ry     beta= 0.70
     Davidson diagonalization with overlap
     ethr =  2.74E-09,  avg # of iterations =  4.2

     total cpu time spent up to now is     1369.0 secs

     total energy              =   -1095.25048662 Ry
     estimated scf accuracy    <       0.00000161 Ry

     iteration # 26     ecut=    90.00 Ry     beta= 0.70
     Davidson diagonalization with overlap
     ethr =  9.60E-10,  avg # of iterations =  2.5

     total cpu time spent up to now is     1405.7 secs

     total energy              =   -1095.25048686 Ry
     estimated scf accuracy    <       0.00000028 Ry

     iteration # 27     ecut=    90.00 Ry     beta= 0.70
     Davidson diagonalization with overlap
     ethr =  1.68E-10,  avg # of iterations =  5.2

     total cpu time spent up to now is     1453.2 secs

     total energy              =   -1095.25048690 Ry
     estimated scf accuracy    <       0.00000018 Ry

     iteration # 28     ecut=    90.00 Ry     beta= 0.70
     Davidson diagonalization with overlap
     ethr =  1.07E-10,  avg # of iterations =  5.2

     total cpu time spent up to now is     1496.2 secs

     total energy              =   -1095.25048691 Ry
     estimated scf accuracy    <       0.00000037 Ry

     iteration # 29     ecut=    90.00 Ry     beta= 0.70
     Davidson diagonalization with overlap
     ethr =  1.07E-10,  avg # of iterations =  2.9

     total cpu time spent up to now is     1532.2 secs

     total energy              =   -1095.25048694 Ry
     estimated scf accuracy    <       0.00000002 Ry

     iteration # 30     ecut=    90.00 Ry     beta= 0.70
     Davidson diagonalization with overlap
     ethr =  1.00E-11,  avg # of iterations =  6.0

     total cpu time spent up to now is     1576.7 secs

     End of self-consistent calculation

          k = 0.0000 0.0000 0.0000 (199917 PWs)   bands (ev):

   -59.7942 -59.7375 -59.7375 -59.7284 -59.7278 -59.7276 -59.7271 -59.6801
   -35.1807 -35.1806 -35.0512 -34.9661 -34.9660 -34.9211 -34.8247 -34.7648
   -34.7647 -34.7641 -34.7640 -34.7108 -34.7104 -34.7099 -34.7096 -34.6543
   -34.6496 -34.6492 -34.6441 -34.6441 -34.6021 -34.4197 -34.4196 -34.2573
   -18.0449 -17.6901 -17.6899 -17.6344 -17.4936 -17.4934 -17.3975 -17.3973
   -10.9086 -10.9085 -10.5490 -10.4700 -10.4699  -9.8764  -9.8753  -9.2503
    -9.1363  -8.3902  -8.2882  -8.2877  -7.9423  -7.7849  -7.7848  -7.5818
    -7.5817  -7.4579  -7.4578  -7.3092  -7.3085  -7.2536  -7.2096  -7.2096
    -7.0808  -7.0808  -6.8547  -6.3880  -6.2706  -6.1655  -6.1654  -5.9848
    -5.9846  -5.5804  -5.5794  -4.5340  -4.5339  -4.3696  -4.3696  -3.9719
    -3.9718  -3.7610  -3.7608  -2.6010  -2.6008  -1.8072  -1.5087  -1.4565
    -1.3109  -1.3107  -1.2942  -1.2941  -1.1252  -1.1252  -0.9097  -0.9089
    -0.3694  -0.2140  -0.1994  -0.1991  -0.1106

          k = 0.0000 0.2802 0.0000 (200118 PWs)   bands (ev):

   -59.7906 -59.7463 -59.7366 -59.7366 -59.7287 -59.7286 -59.7110 -59.6820
   -35.1542 -35.1542 -35.0313 -34.9954 -34.9338 -34.8995 -34.8573 -34.8573
   -34.8168 -34.7727 -34.7393 -34.7357 -34.7357 -34.7123 -34.7122 -34.6860
   -34.6604 -34.6255 -34.5934 -34.5933 -34.5269 -34.4310 -34.4310 -34.2762
   -17.9966 -17.6595 -17.6593 -17.6111 -17.5786 -17.4691 -17.4228 -17.4226
   -10.8682 -10.8682 -10.5132 -10.5131 -10.5120 -10.0743  -9.6681  -9.2064
    -9.1770  -8.6508  -8.2865  -8.0012  -7.9294  -7.6691  -7.6689  -7.5952
    -7.5951  -7.5685  -7.4904  -7.4903  -7.1809  -7.1809  -7.1755  -7.1007
    -7.0997  -7.0996  -6.9062  -6.3621  -6.3579  -6.3577  -6.3060  -6.1235
    -6.0564  -6.0465  -4.8885  -4.7039  -4.7037  -4.3718  -4.3717  -4.0455
    -4.0452  -3.3636  -3.3635  -3.0011  -2.2221  -2.1493  -1.7327  -1.4515
    -1.4007  -1.2841  -1.2840  -1.1599  -1.1597  -1.1460  -0.7370  -0.7107
    -0.5971  -0.5901  -0.4114  -0.1031   0.0720

          k = 0.0000 0.5605 0.0000 (200048 PWs)   bands (ev):

   -59.7801 -59.7646 -59.7342 -59.7341 -59.7311 -59.7311 -59.6974 -59.6877
   -35.0803 -35.0803 -34.9899 -34.9741 -34.9740 -34.9739 -34.9629 -34.8847
   -34.8070 -34.7966 -34.7694 -34.7265 -34.7264 -34.7185 -34.7184 -34.7126
   -34.6675 -34.6533 -34.5207 -34.5207 -34.4649 -34.4649 -34.4174 -34.3312
   -17.8709 -17.7149 -17.5821 -17.5819 -17.5549 -17.4967 -17.4916 -17.4914
   -10.7610 -10.7610 -10.6253 -10.6252 -10.4080 -10.2556  -9.4654  -9.2929
    -9.0927  -8.9193  -8.0213  -8.0103  -7.8451  -7.7979  -7.6023  -7.6022
    -7.5562  -7.5561  -7.3402  -7.3400  -7.1435  -7.1422  -7.1421  -7.1250
    -7.1249  -7.0292  -6.8080  -6.8079  -6.7811  -6.4248  -6.3553  -6.3029
    -6.2968  -6.1916  -4.7768  -4.7766  -4.6778  -4.6776  -4.0315  -3.5687
    -3.5684  -3.2357  -3.2354  -3.0904  -2.9518  -2.4144  -1.7033  -1.3570
    -1.2860  -1.2196  -1.2121  -1.2118  -1.1569  -1.1566  -1.0774  -1.0535
    -0.3323  -0.3151  -0.1464   0.0038   0.3793

          k = 0.2000 0.0000 0.0000 (199930 PWs)   bands (ev):

   -59.7915 -59.7551 -59.7284 -59.7278 -59.7276 -59.7270 -59.7199 -59.6830
   -35.1661 -35.1660 -35.0341 -34.9980 -34.9979 -34.9135 -34.8258 -34.8196
   -34.8131 -34.7303 -34.7256 -34.7146 -34.7108 -34.7104 -34.7100 -34.7096
   -34.6591 -34.6162 -34.6158 -34.6102 -34.5332 -34.4358 -34.4357 -34.2776
   -18.0201 -17.7651 -17.6441 -17.6312 -17.4849 -17.4846 -17.4070 -17.4067
   -10.8334 -10.8331 -10.6560 -10.6032 -10.1869 -10.0183 -10.0173  -9.2461
    -9.1110  -8.3275  -8.1666  -8.1661  -7.9391  -7.9370  -7.8756  -7.7411
    -7.5239  -7.5235  -7.3914  -7.3583  -7.2782  -7.2774  -7.2625  -7.0733
    -7.0727  -6.9362  -6.8981  -6.4279  -6.2109  -6.2108  -6.1584  -6.0770
    -6.0770  -5.4423  -5.4416  -4.7129  -4.6694  -4.6690  -4.1555  -4.1552
    -3.6182  -3.5988  -3.1569  -2.7791  -2.7788  -2.1776  -1.9053  -1.4765
    -1.3829  -1.3827  -1.0912  -1.0908  -1.0870  -0.9983  -0.9098  -0.7201
    -0.6928  -0.6922  -0.4655  -0.3144  -0.3139

          k = 0.2000 0.2802 0.0000 (200092 PWs)   bands (ev):

   -59.7880 -59.7533 -59.7454 -59.7341 -59.7232 -59.7198 -59.7119 -59.6847
   -35.1607 -35.1198 -35.0308 -35.0259 -34.9280 -34.9186 -34.9153 -34.8122
   -34.7931 -34.7650 -34.7380 -34.7279 -34.7205 -34.7074 -34.7041 -34.6896
   -34.6873 -34.6670 -34.6344 -34.5056 -34.4962 -34.4786 -34.4136 -34.2919
   -17.9730 -17.7305 -17.6167 -17.6080 -17.5664 -17.4626 -17.4492 -17.4163
   -10.8661 -10.7243 -10.6838 -10.5741 -10.2396 -10.2075  -9.8074  -9.2897
    -9.0661  -8.5141  -8.2202  -7.9899  -7.8965  -7.8225  -7.7531  -7.7275
    -7.6717  -7.5337  -7.4264  -7.3940  -7.2745  -7.1908  -7.1544  -7.1153
    -6.9995  -6.9443  -6.9354  -6.4165  -6.4079  -6.3753  -6.2451  -6.1988
    -6.1299  -5.8654  -4.9454  -4.8938  -4.8129  -4.3993  -4.2339  -3.9101
    -3.7705  -3.3763  -3.0654  -2.9979  -2.4561  -2.3692  -1.7835  -1.7776
    -1.6182  -1.3606  -1.2779  -1.2151  -1.1014  -1.0715  -0.6882  -0.6038
    -0.5045  -0.4943  -0.0446  -0.0033   0.0537

          k = 0.2000 0.5605 0.0000 (200153 PWs)   bands (ev):

   -59.7779 -59.7629 -59.7484 -59.7415 -59.7207 -59.7199 -59.6991 -59.6901
   -35.1080 -35.0312 -35.0290 -35.0214 -35.0203 -34.9111 -34.8953 -34.8309
   -34.8271 -34.7930 -34.7668 -34.7486 -34.7342 -34.7297 -34.7044 -34.7027
   -34.6700 -34.6573 -34.6108 -34.5381 -34.4450 -34.4160 -34.4090 -34.3359
   -17.8506 -17.6988 -17.6418 -17.5511 -17.5481 -17.5353 -17.4919 -17.4704
   -10.8293 -10.7538 -10.5588 -10.4919 -10.3791 -10.3672  -9.5962  -9.4134
    -8.9511  -8.7772  -7.9832  -7.9408  -7.8796  -7.8085  -7.8083  -7.6938
    -7.5305  -7.4141  -7.3948  -7.3860  -7.3288  -7.1576  -7.0932  -7.0575
    -6.9966  -6.9379  -6.8615  -6.8173  -6.7635  -6.5147  -6.3559  -6.2671
    -6.2422  -6.1412  -5.0952  -5.0874  -4.4082  -4.2456  -4.0254  -3.7129
    -3.3415  -3.1951  -3.1752  -3.1479  -2.9385  -2.3715  -1.9358  -1.8343
    -1.6693  -1.6617  -1.1308  -1.1254  -1.1143  -1.0859  -0.5336  -0.4995
    -0.4521  -0.2922   0.0647   0.1186   0.1758

          k = 0.4000 0.0000 0.0000 (200010 PWs)   bands (ev):

   -59.7835 -59.7710 -59.7284 -59.7278 -59.7276 -59.7271 -59.7039 -59.6911
   -35.1243 -35.1243 -35.0628 -35.0627 -34.9848 -34.9096 -34.8915 -34.8569
   -34.8040 -34.7770 -34.7108 -34.7103 -34.7101 -34.7096 -34.6957 -34.6732
   -34.6695 -34.6335 -34.5476 -34.5473 -34.4813 -34.4811 -34.4250 -34.3360
   -17.9522 -17.8594 -17.6259 -17.6254 -17.4615 -17.4613 -17.4318 -17.4316
   -10.7274 -10.6943 -10.6226 -10.6220 -10.3210 -10.3202  -9.8484  -9.5122
    -8.7686  -8.3385  -8.1895  -8.0290  -7.9198  -7.9193  -7.9168  -7.8542
    -7.6887  -7.6883  -7.3336  -7.2899  -7.1949  -7.1941  -7.1940  -7.1045
    -7.1037  -7.0194  -6.7083  -6.5392  -6.2564  -6.2562  -6.2038  -6.2036
    -5.8384  -5.3454  -5.1801  -5.1795  -4.9037  -4.9032  -3.7307  -3.7301
    -3.2227  -3.2222  -3.2036  -3.1839  -2.6620  -2.5913  -2.3104  -1.5589
    -1.4828  -1.4080  -1.2959  -1.2959  -1.1198  -1.1195  -0.8775  -0.6632
    -0.4919  -0.4917  -0.4479  -0.4476  -0.3732

          k = 0.4000 0.2802 0.0000 (200092 PWs)   bands (ev):

   -59.7803 -59.7684 -59.7429 -59.7389 -59.7183 -59.7143 -59.7046 -59.6925
   -35.1385 -35.0911 -35.0626 -35.0064 -34.9925 -34.9700 -34.8658 -34.8031
   -34.7980 -34.7665 -34.7342 -34.7341 -34.7280 -34.6968 -34.6910 -34.6901
   -34.6809 -34.6561 -34.6403 -34.5515 -34.4622 -34.4262 -34.4081 -34.3376
   -17.9084 -17.8201 -17.6014 -17.6006 -17.5338 -17.4902 -17.4460 -17.4271
   -10.7360 -10.7238 -10.6827 -10.4775 -10.4575 -10.1207  -9.9033  -9.5627
    -8.7257  -8.3022  -8.2272  -8.0737  -7.9476  -7.9288  -7.9071  -7.8604
    -7.6160  -7.4705  -7.4371  -7.3068  -7.2209  -7.2062  -7.1575  -7.0823
    -7.0502  -6.9818  -6.7116  -6.5324  -6.4391  -6.3888  -6.3429  -6.3042
    -5.8948  -5.5715  -5.4376  -5.2404  -4.6426  -4.4458  -3.9263  -3.4120
    -3.3751  -3.3529  -3.0253  -2.8444  -2.8225  -2.6023  -2.4447  -2.2336
    -1.7602  -1.4450  -1.1633  -0.8926  -0.8838  -0.7721  -0.6890  -0.6806
    -0.5711  -0.3525  -0.2622  -0.1650  -0.1173

          k = 0.4000 0.5605 0.0000 (200151 PWs)   bands (ev):

   -59.7714 -59.7612 -59.7582 -59.7508 -59.7114 -59.7070 -59.7039 -59.6967
   -35.1085 -35.0813 -35.0469 -35.0467 -34.9617 -34.8899 -34.8415 -34.8085
   -34.7813 -34.7766 -34.7689 -34.7599 -34.7484 -34.7296 -34.7080 -34.6886
   -34.6844 -34.6773 -34.6682 -34.6294 -34.3950 -34.3936 -34.3887 -34.3533
   -17.7947 -17.7185 -17.6547 -17.5946 -17.5426 -17.5379 -17.4802 -17.4695
   -10.7611 -10.7548 -10.6478 -10.5838 -10.2533 -10.0519  -9.9024  -9.7030
    -8.6220  -8.4661  -8.2354  -8.1224  -7.8982  -7.7613  -7.7479  -7.6998
    -7.5673  -7.5294  -7.4652  -7.3267  -7.2437  -7.1883  -7.1336  -7.1279
    -6.9939  -6.8965  -6.7168  -6.7027  -6.6851  -6.6165  -6.5110  -6.4548
    -5.9459  -5.8373  -5.5332  -5.4620  -3.9721  -3.9216  -3.8266  -3.6920
    -3.2978  -3.2701  -3.1797  -2.9491  -2.9157  -2.8030  -2.4342  -2.2598
    -1.7646  -1.3566  -1.3407  -0.9466  -0.9375  -0.9331  -0.7126  -0.6860
    -0.1936   0.0201   0.1291   0.1336   0.3869

          k =-0.2000 0.2802 0.0000 (200092 PWs)   bands (ev):

   -59.7880 -59.7533 -59.7454 -59.7341 -59.7232 -59.7198 -59.7119 -59.6847
   -35.1607 -35.1198 -35.0308 -35.0259 -34.9280 -34.9186 -34.9153 -34.8122
   -34.7931 -34.7650 -34.7380 -34.7279 -34.7205 -34.7074 -34.7041 -34.6896
   -34.6873 -34.6670 -34.6344 -34.5056 -34.4962 -34.4786 -34.4136 -34.2919
   -17.9730 -17.7305 -17.6167 -17.6080 -17.5664 -17.4626 -17.4492 -17.4163
   -10.8661 -10.7243 -10.6838 -10.5741 -10.2396 -10.2075  -9.8074  -9.2897
    -9.0661  -8.5141  -8.2202  -7.9899  -7.8965  -7.8225  -7.7531  -7.7275
    -7.6717  -7.5337  -7.4264  -7.3940  -7.2745  -7.1908  -7.1544  -7.1153
    -6.9995  -6.9443  -6.9354  -6.4165  -6.4079  -6.3753  -6.2451  -6.1988
    -6.1299  -5.8654  -4.9454  -4.8938  -4.8129  -4.3993  -4.2339  -3.9101
    -3.7705  -3.3763  -3.0654  -2.9979  -2.4561  -2.3692  -1.7835  -1.7776
    -1.6182  -1.3606  -1.2780  -1.2151  -1.1014  -1.0715  -0.6882  -0.6038
    -0.5045  -0.4943  -0.0455  -0.0034   0.0540

          k =-0.2000 0.5605 0.0000 (200153 PWs)   bands (ev):

   -59.7779 -59.7629 -59.7484 -59.7415 -59.7207 -59.7199 -59.6991 -59.6901
   -35.1080 -35.0312 -35.0290 -35.0214 -35.0203 -34.9111 -34.8953 -34.8309
   -34.8271 -34.7930 -34.7668 -34.7486 -34.7342 -34.7297 -34.7044 -34.7027
   -34.6700 -34.6573 -34.6108 -34.5381 -34.4450 -34.4160 -34.4090 -34.3359
   -17.8506 -17.6988 -17.6418 -17.5511 -17.5481 -17.5353 -17.4919 -17.4704
   -10.8293 -10.7538 -10.5588 -10.4919 -10.3791 -10.3672  -9.5962  -9.4134
    -8.9511  -8.7772  -7.9832  -7.9408  -7.8796  -7.8085  -7.8083  -7.6938
    -7.5305  -7.4141  -7.3948  -7.3860  -7.3288  -7.1576  -7.0932  -7.0575
    -6.9966  -6.9380  -6.8615  -6.8173  -6.7635  -6.5147  -6.3559  -6.2671
    -6.2422  -6.1412  -5.0952  -5.0874  -4.4082  -4.2456  -4.0254  -3.7129
    -3.3415  -3.1951  -3.1752  -3.1479  -2.9385  -2.3715  -1.9358  -1.8343
    -1.6693  -1.6617  -1.1308  -1.1255  -1.1143  -1.0859  -0.5336  -0.4995
    -0.4522  -0.2922   0.0648   0.1186   0.1776

          k =-0.4000 0.2802 0.0000 (200092 PWs)   bands (ev):

   -59.7803 -59.7684 -59.7429 -59.7389 -59.7183 -59.7143 -59.7046 -59.6925
   -35.1385 -35.0911 -35.0626 -35.0064 -34.9926 -34.9700 -34.8658 -34.8031
   -34.7980 -34.7665 -34.7342 -34.7341 -34.7280 -34.6968 -34.6910 -34.6901
   -34.6809 -34.6561 -34.6403 -34.5515 -34.4622 -34.4262 -34.4081 -34.3376
   -17.9084 -17.8200 -17.6014 -17.6006 -17.5338 -17.4902 -17.4460 -17.4271
   -10.7360 -10.7238 -10.6828 -10.4775 -10.4575 -10.1208  -9.9033  -9.5627
    -8.7257  -8.3022  -8.2273  -8.0737  -7.9476  -7.9288  -7.9071  -7.8604
    -7.6159  -7.4705  -7.4371  -7.3068  -7.2209  -7.2062  -7.1576  -7.0823
    -7.0502  -6.9818  -6.7116  -6.5324  -6.4391  -6.3888  -6.3429  -6.3042
    -5.8948  -5.5715  -5.4376  -5.2404  -4.6426  -4.4458  -3.9263  -3.4120
    -3.3751  -3.3529  -3.0253  -2.8444  -2.8225  -2.6023  -2.4447  -2.2336
    -1.7601  -1.4450  -1.1633  -0.8926  -0.8838  -0.7721  -0.6890  -0.6806
    -0.5711  -0.3528  -0.2624  -0.1709  -0.1239

          k =-0.4000 0.5605 0.0000 (200151 PWs)   bands (ev):

   -59.7714 -59.7612 -59.7582 -59.7508 -59.7114 -59.7070 -59.7039 -59.6967
   -35.1085 -35.0813 -35.0469 -35.0467 -34.9617 -34.8899 -34.8415 -34.8085
   -34.7813 -34.7766 -34.7689 -34.7599 -34.7484 -34.7296 -34.7080 -34.6886
   -34.6844 -34.6773 -34.6682 -34.6294 -34.3950 -34.3936 -34.3887 -34.3533
   -17.7947 -17.7185 -17.6547 -17.5946 -17.5426 -17.5379 -17.4802 -17.4695
   -10.7611 -10.7548 -10.6478 -10.5838 -10.2533 -10.0519  -9.9024  -9.7030
    -8.6220  -8.4661  -8.2354  -8.1224  -7.8982  -7.7613  -7.7479  -7.6998
    -7.5673  -7.5294  -7.4652  -7.3267  -7.2437  -7.1883  -7.1336  -7.1279
    -6.9939  -6.8965  -6.7168  -6.7027  -6.6850  -6.6165  -6.5110  -6.4548
    -5.9459  -5.8373  -5.5332  -5.4619  -3.9721  -3.9216  -3.8266  -3.6920
    -3.2978  -3.2701  -3.1797  -2.9491  -2.9157  -2.8030  -2.4342  -2.2598
    -1.7646  -1.3567  -1.3407  -0.9466  -0.9375  -0.9331  -0.7126  -0.6860
    -0.1936   0.0202   0.1291   0.1337   0.3867

     the Fermi energy is    -2.8963 ev

!    total energy              =   -1095.25048694 Ry
     estimated scf accuracy    <          8.0E-09 Ry
     smearing contrib. (-TS)   =      -0.00682083 Ry
     internal energy E=F+TS    =   -1095.24366611 Ry

     The total energy is F=E-TS. E is the sum of the following terms:
     one-electron contribution =  -11116.37360535 Ry
     hartree contribution      =    5535.77457329 Ry
     xc contribution           =    -164.75318995 Ry
     ewald contribution        =    4650.10855590 Ry

     convergence has been achieved in  30 iterations

     Forces acting on atoms (cartesian axes, Ry/au):

     atom    1 type  1   force =     0.00000677    0.00002364    0.00059938
     atom    2 type  1   force =    -0.00002858    0.00003661    0.00053505
     atom    3 type  1   force =     0.00013644   -0.00002126   -0.00047557
     atom    4 type  1   force =    -0.00014426   -0.00001401   -0.00044981
     atom    5 type  1   force =    -0.00000493    0.00003934    0.00051935
     atom    6 type  1   force =    -0.00002615    0.00002554    0.00047267
     atom    7 type  1   force =     0.00012746   -0.00004239   -0.00052548
     atom    8 type  1   force =    -0.00013690   -0.00005308   -0.00051692
     atom    9 type  2   force =     0.00012513   -0.00001915   -0.00033459
     atom   10 type  2   force =     0.00002257   -0.00003435   -0.00021892
     atom   11 type  2   force =     0.00000510   -0.00002920   -0.00024258
     atom   12 type  2   force =    -0.00010658   -0.00002246   -0.00031026
     atom   13 type  2   force =    -0.00002028    0.00004057    0.00028557
     atom   14 type  2   force =     0.00004383    0.00003144    0.00021564
     atom   15 type  2   force =    -0.00004896    0.00003509    0.00025761
     atom   16 type  2   force =     0.00007985   -0.00003215   -0.00034648
     atom   17 type  2   force =     0.00006804   -0.00003053   -0.00022206
     atom   18 type  2   force =    -0.00004221   -0.00003044   -0.00023930
     atom   19 type  2   force =    -0.00006481   -0.00004108   -0.00032025
     atom   20 type  2   force =     0.00002141    0.00003695    0.00029134
     atom   21 type  2   force =     0.00001423    0.00002952    0.00027769
     atom   22 type  2   force =     0.00000389    0.00002288    0.00021122
     atom   23 type  2   force =    -0.00002054    0.00002661    0.00025368
     atom   24 type  2   force =    -0.00001051    0.00002192    0.00028304

     Total force =     0.001858     Total SCF correction =     0.000144

     BFGS Geometry Optimization
     Energy error            =      0.0E+00 Ry
     Gradient error          =      6.0E-04 Ry/Bohr

     number of scf cycles    =   1
     number of bfgs steps    =   0

     energy             new  =   -1095.2504869393 Ry

     new trust radius        =       0.0005998842 bohr
     new conv_thr            =       0.0000000100 Ry


ATOMIC_POSITIONS (angstrom)
Nb            0.0365977947        1.7799010587        1.2409839300
Nb            4.9567152945        1.7799281721        1.2422604469
Nb            2.4965377298        3.5358944309        1.0727391738
Nb            7.4167967453        3.5359170374        1.0730871016
Nb            0.0365972949        5.2914348845        1.2411284807
Nb            4.9567190879        5.2914438025        1.2424256240
Nb            2.4965371481        7.0473971561        1.0728936224
Nb            7.4168137097        7.0474060283        1.0732166675
C             1.8142991082        1.7803345168        2.3092582955
C             3.1781964226        1.7803076973        2.3094349507
C             6.7350774649        1.7803674617        2.3097393939
C             8.0989896997        1.7802999772        2.3094204681
C             0.7185595599        3.5356338888        0.0045035597
C             4.2748279910        3.5356223296        0.0056194310
C             5.6386847307        3.5356653715        0.0056738625
C             1.8142924801        5.2917312605        2.3093715941
C             3.1781836437        5.2916697925        2.3095435118
C             6.7351013647        5.2917445531        2.3098321073
C             8.0990084359        5.2917064120        2.3095256221
C             9.1946750432        3.5355982783        0.0046050269
C             0.7185945361        7.0470045686        0.0045971945
C             4.2748194101        7.0469891149        0.0057053701
C             5.6387114346        7.0470336100        0.0057477421
C             9.1946683058        7.0469728649        0.0046879585



     Writing output data file /home/fernando/serse/temp/NB.save/
     NEW-OLD atomic charge density approx. for the potential

     total cpu time spent up to now is     1584.0 secs

     Self-consistent Calculation

     iteration #  1     ecut=    90.00 Ry     beta= 0.70
     Davidson diagonalization with overlap
     ethr =  1.00E-06,  avg # of iterations =  2.0

     Threshold (ethr) on eigenvalues was too large:
     Diagonalizing with lowered threshold

     Davidson diagonalization with overlap
     ethr =  7.92E-08,  avg # of iterations =  2.0

     total cpu time spent up to now is     1659.4 secs

     total energy              =   -1095.25041771 Ry
     estimated scf accuracy    <       0.00015922 Ry

     iteration #  2     ecut=    90.00 Ry     beta= 0.70
     Davidson diagonalization with overlap
     ethr =  9.48E-08,  avg # of iterations =  6.0

     total cpu time spent up to now is     1709.3 secs

     total energy              =   -1095.25017823 Ry
     estimated scf accuracy    <       0.00286907 Ry

     iteration #  3     ecut=    90.00 Ry     beta= 0.70
     Davidson diagonalization with overlap
     ethr =  9.48E-08,  avg # of iterations =  8.5

     total cpu time spent up to now is     1758.3 secs

     total energy              =   -1095.25046474 Ry
     estimated scf accuracy    <       0.00027609 Ry

     iteration #  4     ecut=    90.00 Ry     beta= 0.70
     Davidson diagonalization with overlap
     ethr =  9.48E-08,  avg # of iterations =  2.3

     total cpu time spent up to now is     1793.4 secs

     total energy              =   -1095.25048364 Ry
     estimated scf accuracy    <       0.00003482 Ry

     iteration #  5     ecut=    90.00 Ry     beta= 0.70
     Davidson diagonalization with overlap
     ethr =  2.07E-08,  avg # of iterations =  3.6

     total cpu time spent up to now is     1830.3 secs

     total energy              =   -1095.25048881 Ry
     estimated scf accuracy    <       0.00000223 Ry

     iteration #  6     ecut=    90.00 Ry     beta= 0.70
     Davidson diagonalization with overlap
     ethr =  1.33E-09,  avg # of iterations =  6.1

     total cpu time spent up to now is     1876.3 secs

     total energy              =   -1095.25048968 Ry
     estimated scf accuracy    <       0.00000053 Ry

     iteration #  7     ecut=    90.00 Ry     beta= 0.70
     Davidson diagonalization with overlap
     ethr =  3.16E-10,  avg # of iterations =  4.8

     total cpu time spent up to now is     1917.4 secs

     total energy              =   -1095.25048969 Ry
     estimated scf accuracy    <       0.00000076 Ry

     iteration #  8     ecut=    90.00 Ry     beta= 0.70
     Davidson diagonalization with overlap
     ethr =  3.16E-10,  avg # of iterations =  2.8

     total cpu time spent up to now is     1952.6 secs

     total energy              =   -1095.25048975 Ry
     estimated scf accuracy    <       0.00000038 Ry

     iteration #  9     ecut=    90.00 Ry     beta= 0.70
     Davidson diagonalization with overlap
     ethr =  2.28E-10,  avg # of iterations =  1.8

     total cpu time spent up to now is     1986.1 secs

     total energy              =   -1095.25048978 Ry
     estimated scf accuracy    <       0.00000006 Ry

     iteration # 10     ecut=    90.00 Ry     beta= 0.70
     Davidson diagonalization with overlap
     ethr =  3.49E-11,  avg # of iterations =  3.0

     total cpu time spent up to now is     2023.4 secs

     End of self-consistent calculation

          k = 0.0000 0.0000 0.0000 (199917 PWs)   bands (ev):

   -59.7940 -59.7373 -59.7372 -59.7279 -59.7275 -59.7274 -59.7268 -59.6798
   -35.1805 -35.1804 -35.0511 -34.9658 -34.9657 -34.9208 -34.8245 -34.7646
   -34.7646 -34.7638 -34.7638 -34.7104 -34.7102 -34.7097 -34.7094 -34.6541
   -34.6495 -34.6491 -34.6439 -34.6439 -34.6019 -34.4195 -34.4195 -34.2572
   -18.0450 -17.6899 -17.6899 -17.6344 -17.4937 -17.4936 -17.3975 -17.3974
   -10.9090 -10.9089 -10.5488 -10.4705 -10.4704  -9.8758  -9.8748  -9.2505
    -9.1361  -8.3903  -8.2885  -8.2880  -7.9422  -7.7847  -7.7846  -7.5820
    -7.5819  -7.4583  -7.4582  -7.3098  -7.3091  -7.2535  -7.2097  -7.2097
    -7.0808  -7.0807  -6.8547  -6.3881  -6.2707  -6.1660  -6.1660  -5.9849
    -5.9847  -5.5815  -5.5806  -4.5335  -4.5335  -4.3694  -4.3694  -3.9712
    -3.9711  -3.7613  -3.7611  -2.6000  -2.5999  -1.8092  -1.5090  -1.4580
    -1.3107  -1.3104  -1.2945  -1.2943  -1.1247  -1.1247  -0.9081  -0.9073
    -0.3699  -0.2121  -0.1990  -0.1988  -0.1096

          k = 0.0000 0.2802 0.0000 (200118 PWs)   bands (ev):

   -59.7903 -59.7460 -59.7363 -59.7363 -59.7284 -59.7283 -59.7107 -59.6818
   -35.1540 -35.1539 -35.0312 -34.9951 -34.9335 -34.8992 -34.8571 -34.8571
   -34.8165 -34.7727 -34.7390 -34.7355 -34.7354 -34.7120 -34.7120 -34.6858
   -34.6602 -34.6253 -34.5932 -34.5932 -34.5269 -34.4309 -34.4309 -34.2761
   -17.9967 -17.6593 -17.6593 -17.6112 -17.5788 -17.4692 -17.4228 -17.4227
   -10.8687 -10.8686 -10.5137 -10.5136 -10.5118 -10.0738  -9.6676  -9.2066
    -9.1768  -8.6510  -8.2866  -8.0012  -7.9298  -7.6687  -7.6687  -7.5954
    -7.5954  -7.5691  -7.4907  -7.4906  -7.1809  -7.1809  -7.1758  -7.1006
    -7.0995  -7.0995  -6.9061  -6.3622  -6.3583  -6.3582  -6.3062  -6.1235
    -6.0573  -6.0466  -4.8899  -4.7035  -4.7034  -4.3714  -4.3713  -4.0452
    -4.0450  -3.3635  -3.3635  -3.0006  -2.2240  -2.1483  -1.7340  -1.4512
    -1.4007  -1.2843  -1.2842  -1.1596  -1.1594  -1.1444  -0.7365  -0.7089
    -0.5956  -0.5898  -0.4118  -0.1020   0.0724

          k = 0.0000 0.5605 0.0000 (200048 PWs)   bands (ev):

   -59.7799 -59.7643 -59.7339 -59.7338 -59.7309 -59.7308 -59.6971 -59.6874
   -35.0801 -35.0800 -34.9896 -34.9739 -34.9738 -34.9738 -34.9626 -34.8846
   -34.8068 -34.7964 -34.7691 -34.7263 -34.7262 -34.7182 -34.7181 -34.7123
   -34.6672 -34.6530 -34.5205 -34.5205 -34.4648 -34.4648 -34.4173 -34.3311
   -17.8711 -17.7151 -17.5820 -17.5819 -17.5550 -17.4968 -17.4915 -17.4915
   -10.7615 -10.7614 -10.6258 -10.6257 -10.4077 -10.2552  -9.4650  -9.2926
    -9.0929  -8.9194  -8.0216  -8.0105  -7.8455  -7.7983  -7.6024  -7.6024
    -7.5565  -7.5564  -7.3398  -7.3398  -7.1435  -7.1419  -7.1418  -7.1252
    -7.1252  -7.0291  -6.8083  -6.8083  -6.7810  -6.4247  -6.3557  -6.3036
    -6.2969  -6.1917  -4.7765  -4.7763  -4.6774  -4.6773  -4.0330  -3.5686
    -3.5684  -3.2356  -3.2355  -3.0920  -2.9518  -2.4150  -1.7025  -1.3563
    -1.2858  -1.2179  -1.2122  -1.2119  -1.1568  -1.1565  -1.0757  -1.0533
    -0.3330  -0.3136  -0.1452   0.0038   0.3793

          k = 0.2000 0.0000 0.0000 (199930 PWs)   bands (ev):

   -59.7912 -59.7548 -59.7279 -59.7275 -59.7274 -59.7268 -59.7196 -59.6827
   -35.1658 -35.1658 -35.0340 -34.9977 -34.9977 -34.9132 -34.8258 -34.8193
   -34.8128 -34.7300 -34.7254 -34.7143 -34.7104 -34.7102 -34.7098 -34.7094
   -34.6589 -34.6160 -34.6157 -34.6099 -34.5330 -34.4356 -34.4356 -34.2775
   -18.0202 -17.7651 -17.6440 -17.6312 -17.4850 -17.4849 -17.4070 -17.4069
   -10.8337 -10.8335 -10.6565 -10.6032 -10.1873 -10.0179 -10.0170  -9.2460
    -9.1111  -8.3275  -8.1668  -8.1663  -7.9390  -7.9364  -7.8756  -7.7413
    -7.5241  -7.5238  -7.3916  -7.3587  -7.2787  -7.2780  -7.2624  -7.0732
    -7.0727  -6.9361  -6.8981  -6.4280  -6.2114  -6.2113  -6.1584  -6.0773
    -6.0773  -5.4431  -5.4424  -4.7124  -4.6692  -4.6689  -4.1550  -4.1547
    -3.6185  -3.5992  -3.1560  -2.7782  -2.7778  -2.1793  -1.9056  -1.4766
    -1.3827  -1.3825  -1.0907  -1.0903  -1.0873  -1.0000  -0.9085  -0.7191
    -0.6913  -0.6908  -0.4657  -0.3139  -0.3136

          k = 0.2000 0.2802 0.0000 (200092 PWs)   bands (ev):

   -59.7877 -59.7531 -59.7452 -59.7338 -59.7229 -59.7195 -59.7116 -59.6845
   -35.1605 -35.1196 -35.0305 -35.0258 -34.9278 -34.9185 -34.9151 -34.8119
   -34.7929 -34.7648 -34.7377 -34.7277 -34.7203 -34.7072 -34.7038 -34.6894
   -34.6871 -34.6668 -34.6342 -34.5055 -34.4961 -34.4784 -34.4135 -34.2919
   -17.9731 -17.7304 -17.6167 -17.6080 -17.5666 -17.4628 -17.4492 -17.4163
   -10.8665 -10.7246 -10.6843 -10.5740 -10.2400 -10.2072  -9.8071  -9.2895
    -9.0662  -8.5141  -8.2202  -7.9900  -7.8961  -7.8227  -7.7531  -7.7277
    -7.6720  -7.5343  -7.4266  -7.3942  -7.2749  -7.1908  -7.1548  -7.1152
    -6.9994  -6.9443  -6.9353  -6.4170  -6.4080  -6.3757  -6.2454  -6.1989
    -6.1301  -5.8660  -4.9452  -4.8934  -4.8139  -4.3989  -4.2338  -3.9100
    -3.7701  -3.3764  -3.0648  -2.9977  -2.4577  -2.3682  -1.7835  -1.7772
    -1.6178  -1.3606  -1.2785  -1.2149  -1.1017  -1.0712  -0.6869  -0.6031
    -0.5035  -0.4946  -0.0453  -0.0026   0.0542

          k = 0.2000 0.5605 0.0000 (200153 PWs)   bands (ev):

   -59.7776 -59.7626 -59.7481 -59.7412 -59.7205 -59.7196 -59.6988 -59.6898
   -35.1078 -35.0310 -35.0288 -35.0212 -35.0201 -34.9109 -34.8952 -34.8306
   -34.8270 -34.7928 -34.7665 -34.7483 -34.7339 -34.7295 -34.7041 -34.7025
   -34.6698 -34.6570 -34.6106 -34.5380 -34.4449 -34.4158 -34.4089 -34.3359
   -17.8507 -17.6989 -17.6417 -17.5512 -17.5480 -17.5353 -17.4920 -17.4704
   -10.8297 -10.7542 -10.5592 -10.4917 -10.3795 -10.3670  -9.5959  -9.4133
    -8.9511  -8.7772  -7.9834  -7.9409  -7.8795  -7.8088  -7.8085  -7.6941
    -7.5303  -7.4141  -7.3951  -7.3863  -7.3287  -7.1577  -7.0936  -7.0575
    -6.9962  -6.9379  -6.8621  -6.8173  -6.7639  -6.5149  -6.3560  -6.2673
    -6.2425  -6.1416  -5.0950  -5.0871  -4.4078  -4.2454  -4.0265  -3.7130
    -3.3412  -3.1952  -3.1766  -3.1478  -2.9384  -2.3716  -1.9350  -1.8339
    -1.6687  -1.6615  -1.1310  -1.1254  -1.1143  -1.0858  -0.5325  -0.4999
    -0.4516  -0.2913   0.0645   0.1196   0.1677

          k = 0.4000 0.0000 0.0000 (200010 PWs)   bands (ev):

   -59.7832 -59.7707 -59.7279 -59.7275 -59.7274 -59.7269 -59.7036 -59.6909
   -35.1241 -35.1240 -35.0625 -35.0625 -34.9847 -34.9096 -34.8912 -34.8567
   -34.8037 -34.7767 -34.7104 -34.7100 -34.7099 -34.7094 -34.6954 -34.6730
   -34.6692 -34.6332 -34.5475 -34.5472 -34.4812 -34.4810 -34.4249 -34.3359
   -17.9522 -17.8594 -17.6258 -17.6254 -17.4616 -17.4615 -17.4318 -17.4317
   -10.7278 -10.6945 -10.6227 -10.6222 -10.3209 -10.3202  -9.8487  -9.5123
    -8.7685  -8.3380  -8.1895  -8.0290  -7.9199  -7.9194  -7.9168  -7.8543
    -7.6888  -7.6884  -7.3340  -7.2900  -7.1952  -7.1945  -7.1941  -7.1046
    -7.1039  -7.0194  -6.7082  -6.5393  -6.2569  -6.2567  -6.2043  -6.2041
    -5.8382  -5.3451  -5.1806  -5.1800  -4.9038  -4.9033  -3.7300  -3.7295
    -3.2219  -3.2214  -3.2038  -3.1846  -2.6632  -2.5915  -2.3094  -1.5588
    -1.4817  -1.4073  -1.2958  -1.2957  -1.1195  -1.1192  -0.8777  -0.6634
    -0.4908  -0.4906  -0.4472  -0.4469  -0.3745

          k = 0.4000 0.2802 0.0000 (200092 PWs)   bands (ev):

   -59.7800 -59.7681 -59.7426 -59.7387 -59.7180 -59.7141 -59.7044 -59.6922
   -35.1382 -35.0909 -35.0624 -35.0063 -34.9923 -34.9699 -34.8656 -34.8029
   -34.7977 -34.7662 -34.7340 -34.7338 -34.7278 -34.6965 -34.6907 -34.6899
   -34.6806 -34.6558 -34.6402 -34.5514 -34.4621 -34.4260 -34.4080 -34.3375
   -17.9084 -17.8201 -17.6014 -17.6006 -17.5339 -17.4903 -17.4462 -17.4272
   -10.7364 -10.7240 -10.6829 -10.4774 -10.4577 -10.1207  -9.9035  -9.5628
    -8.7255  -8.3017  -8.2272  -8.0737  -7.9477  -7.9289  -7.9071  -7.8605
    -7.6161  -7.4706  -7.4375  -7.3070  -7.2212  -7.2063  -7.1577  -7.0825
    -7.0502  -6.9818  -6.7116  -6.5325  -6.4396  -6.3892  -6.3433  -6.3046
    -5.8948  -5.5719  -5.4373  -5.2405  -4.6432  -4.4460  -3.9257  -3.4113
    -3.3753  -3.3523  -3.0253  -2.8436  -2.8236  -2.6020  -2.4447  -2.2329
    -1.7602  -1.4450  -1.1628  -0.8929  -0.8834  -0.7727  -0.6883  -0.6809
    -0.5705  -0.3522  -0.2613  -0.1699  -0.1181

          k = 0.4000 0.5605 0.0000 (200151 PWs)   bands (ev):

   -59.7711 -59.7609 -59.7579 -59.7505 -59.7111 -59.7067 -59.7036 -59.6964
   -35.1083 -35.0810 -35.0467 -35.0465 -34.9615 -34.8896 -34.8412 -34.8083
   -34.7810 -34.7764 -34.7686 -34.7596 -34.7481 -34.7295 -34.7078 -34.6883
   -34.6841 -34.6770 -34.6679 -34.6292 -34.3949 -34.3935 -34.3886 -34.3532
   -17.7948 -17.7185 -17.6548 -17.5947 -17.5427 -17.5379 -17.4803 -17.4696
   -10.7613 -10.7551 -10.6479 -10.5839 -10.2535 -10.0521  -9.9024  -9.7030
    -8.6218  -8.4660  -8.2351  -8.1224  -7.8984  -7.7613  -7.7481  -7.7002
    -7.5672  -7.5296  -7.4653  -7.3268  -7.2438  -7.1884  -7.1337  -7.1278
    -6.9942  -6.8967  -6.7169  -6.7030  -6.6854  -6.6167  -6.5112  -6.4551
    -5.9460  -5.8376  -5.5331  -5.4620  -3.9728  -3.9215  -3.8264  -3.6919
    -3.2972  -3.2711  -3.1799  -2.9486  -2.9149  -2.8028  -2.4336  -2.2595
    -1.7649  -1.3573  -1.3410  -0.9469  -0.9378  -0.9331  -0.7129  -0.6858
    -0.1933   0.0211   0.1298   0.1343   0.3877

          k =-0.2000 0.2802 0.0000 (200092 PWs)   bands (ev):

   -59.7877 -59.7531 -59.7452 -59.7338 -59.7229 -59.7195 -59.7116 -59.6845
   -35.1605 -35.1196 -35.0305 -35.0258 -34.9278 -34.9185 -34.9151 -34.8119
   -34.7929 -34.7648 -34.7377 -34.7278 -34.7203 -34.7072 -34.7038 -34.6894
   -34.6871 -34.6668 -34.6342 -34.5055 -34.4961 -34.4784 -34.4135 -34.2919
   -17.9731 -17.7304 -17.6167 -17.6080 -17.5666 -17.4628 -17.4492 -17.4163
   -10.8665 -10.7246 -10.6843 -10.5740 -10.2400 -10.2072  -9.8071  -9.2895
    -9.0662  -8.5141  -8.2202  -7.9899  -7.8961  -7.8227  -7.7531  -7.7277
    -7.6720  -7.5343  -7.4266  -7.3941  -7.2749  -7.1908  -7.1548  -7.1152
    -6.9994  -6.9443  -6.9353  -6.4170  -6.4080  -6.3757  -6.2454  -6.1989
    -6.1301  -5.8660  -4.9452  -4.8934  -4.8139  -4.3989  -4.2338  -3.9100
    -3.7701  -3.3764  -3.0648  -2.9977  -2.4577  -2.3682  -1.7835  -1.7772
    -1.6178  -1.3606  -1.2786  -1.2149  -1.1017  -1.0712  -0.6869  -0.6031
    -0.5036  -0.4946  -0.0459  -0.0026   0.0544

          k =-0.2000 0.5605 0.0000 (200153 PWs)   bands (ev):

   -59.7776 -59.7626 -59.7481 -59.7412 -59.7205 -59.7196 -59.6988 -59.6898
   -35.1078 -35.0310 -35.0288 -35.0212 -35.0201 -34.9109 -34.8952 -34.8306
   -34.8270 -34.7928 -34.7665 -34.7483 -34.7339 -34.7295 -34.7041 -34.7025
   -34.6698 -34.6570 -34.6106 -34.5380 -34.4449 -34.4159 -34.4089 -34.3359
   -17.8507 -17.6989 -17.6417 -17.5512 -17.5480 -17.5353 -17.4920 -17.4704
   -10.8297 -10.7542 -10.5592 -10.4917 -10.3795 -10.3670  -9.5959  -9.4133
    -8.9511  -8.7772  -7.9834  -7.9409  -7.8795  -7.8088  -7.8085  -7.6941
    -7.5303  -7.4141  -7.3951  -7.3863  -7.3287  -7.1577  -7.0936  -7.0575
    -6.9962  -6.9379  -6.8621  -6.8173  -6.7639  -6.5148  -6.3560  -6.2673
    -6.2425  -6.1416  -5.0950  -5.0872  -4.4078  -4.2453  -4.0265  -3.7130
    -3.3413  -3.1952  -3.1766  -3.1478  -2.9384  -2.3716  -1.9350  -1.8339
    -1.6687  -1.6615  -1.1310  -1.1254  -1.1143  -1.0858  -0.5325  -0.4999
    -0.4516  -0.2913   0.0646   0.1196   0.1676

          k =-0.4000 0.2802 0.0000 (200092 PWs)   bands (ev):

   -59.7800 -59.7681 -59.7426 -59.7387 -59.7180 -59.7141 -59.7044 -59.6922
   -35.1382 -35.0909 -35.0623 -35.0063 -34.9923 -34.9699 -34.8656 -34.8029
   -34.7977 -34.7662 -34.7340 -34.7338 -34.7278 -34.6965 -34.6907 -34.6899
   -34.6806 -34.6558 -34.6402 -34.5514 -34.4621 -34.4260 -34.4080 -34.3375
   -17.9084 -17.8201 -17.6014 -17.6006 -17.5339 -17.4903 -17.4462 -17.4272
   -10.7364 -10.7240 -10.6829 -10.4774 -10.4577 -10.1207  -9.9035  -9.5628
    -8.7255  -8.3017  -8.2272  -8.0737  -7.9477  -7.9289  -7.9071  -7.8605
    -7.6161  -7.4706  -7.4375  -7.3070  -7.2212  -7.2063  -7.1577  -7.0825
    -7.0502  -6.9818  -6.7116  -6.5325  -6.4396  -6.3892  -6.3433  -6.3046
    -5.8948  -5.5719  -5.4373  -5.2405  -4.6432  -4.4460  -3.9257  -3.4113
    -3.3753  -3.3523  -3.0253  -2.8436  -2.8236  -2.6020  -2.4447  -2.2329
    -1.7602  -1.4450  -1.1628  -0.8929  -0.8834  -0.7728  -0.6883  -0.6809
    -0.5705  -0.3523  -0.2613  -0.1707  -0.1230

          k =-0.4000 0.5605 0.0000 (200151 PWs)   bands (ev):

   -59.7711 -59.7609 -59.7579 -59.7505 -59.7111 -59.7067 -59.7036 -59.6964
   -35.1083 -35.0810 -35.0467 -35.0465 -34.9615 -34.8896 -34.8413 -34.8083
   -34.7810 -34.7764 -34.7686 -34.7596 -34.7481 -34.7295 -34.7078 -34.6883
   -34.6841 -34.6770 -34.6679 -34.6292 -34.3949 -34.3935 -34.3886 -34.3532
   -17.7948 -17.7185 -17.6548 -17.5947 -17.5427 -17.5379 -17.4803 -17.4696
   -10.7613 -10.7551 -10.6479 -10.5838 -10.2535 -10.0522  -9.9024  -9.7030
    -8.6218  -8.4660  -8.2351  -8.1224  -7.8984  -7.7613  -7.7481  -7.7002
    -7.5672  -7.5296  -7.4653  -7.3268  -7.2438  -7.1884  -7.1337  -7.1278
    -6.9942  -6.8967  -6.7169  -6.7030  -6.6854  -6.6167  -6.5112  -6.4551
    -5.9460  -5.8376  -5.5331  -5.4620  -3.9728  -3.9215  -3.8264  -3.6919
    -3.2972  -3.2711  -3.1799  -2.9486  -2.9149  -2.8028  -2.4335  -2.2595
    -1.7649  -1.3573  -1.3410  -0.9468  -0.9378  -0.9331  -0.7129  -0.6858
    -0.1933   0.0211   0.1298   0.1343   0.3876

     the Fermi energy is    -2.8960 ev

!    total energy              =   -1095.25048978 Ry
     estimated scf accuracy    <          9.7E-09 Ry
     smearing contrib. (-TS)   =      -0.00682019 Ry
     internal energy E=F+TS    =   -1095.24366959 Ry

     The total energy is F=E-TS. E is the sum of the following terms:
     one-electron contribution =  -11116.49752017 Ry
     hartree contribution      =    5535.83720282 Ry
     xc contribution           =    -164.75442447 Ry
     ewald contribution        =    4650.17107222 Ry

     convergence has been achieved in  10 iterations

     Forces acting on atoms (cartesian axes, Ry/au):

     atom    1 type  1   force =    -0.00004454    0.00012420    0.00018657
     atom    2 type  1   force =     0.00003187    0.00005836    0.00028569
     atom    3 type  1   force =    -0.00016857    0.00010816   -0.00038131
     atom    4 type  1   force =     0.00016991    0.00007369   -0.00041332
     atom    5 type  1   force =    -0.00001944   -0.00008037    0.00018904
     atom    6 type  1   force =     0.00000801   -0.00001671    0.00027808
     atom    7 type  1   force =    -0.00011920   -0.00014743   -0.00041204
     atom    8 type  1   force =     0.00011237   -0.00011875   -0.00043632
     atom    9 type  2   force =     0.00009731   -0.00002140   -0.00020930
     atom   10 type  2   force =     0.00001461   -0.00003308   -0.00010889
     atom   11 type  2   force =    -0.00000022   -0.00003134   -0.00012979
     atom   12 type  2   force =    -0.00008190   -0.00002686   -0.00018856
     atom   13 type  2   force =    -0.00006481    0.00002866    0.00029052
     atom   14 type  2   force =     0.00004143    0.00002470    0.00020060
     atom   15 type  2   force =    -0.00004517    0.00002794    0.00023563
     atom   16 type  2   force =     0.00012868   -0.00002971   -0.00022329
     atom   17 type  2   force =    -0.00001026   -0.00002881   -0.00011904
     atom   18 type  2   force =     0.00001706   -0.00002661   -0.00013200
     atom   19 type  2   force =    -0.00011164   -0.00003411   -0.00019900
     atom   20 type  2   force =     0.00005910    0.00002614    0.00029864
     atom   21 type  2   force =    -0.00008577    0.00003597    0.00027748
     atom   22 type  2   force =     0.00006596    0.00002799    0.00019443
     atom   23 type  2   force =    -0.00007556    0.00002950    0.00023118
     atom   24 type  2   force =     0.00008077    0.00002985    0.00028498

     Total force =     0.001384     Total SCF correction =     0.000142
     SCF correction compared to forces is large: reduce conv_thr to get better values
     Energy error            =      2.8E-06 Ry
     Gradient error          =      4.4E-04 Ry/Bohr

     number of scf cycles    =   2
     number of bfgs steps    =   1

     energy             old  =   -1095.2504869393 Ry
     energy             new  =   -1095.2504897840 Ry

     CASE: energy            _new < energy            _old

     new trust radius        =       0.0006598726 bohr
     new conv_thr            =            1.0E-10 Ry


ATOMIC_POSITIONS (angstrom)
Nb            0.0365757758        1.7799715185        1.2412099145
Nb            4.9567259936        1.7799667116        1.2425249320
Nb            2.4964780091        3.5359468744        1.0724369949
Nb            7.4168555091        3.5359528680        1.0727735496
Nb            0.0365860050        5.2914009320        1.2413387148
Nb            4.9567177359        5.2914404434        1.2426728127
Nb            2.4965015168        7.0473104654        1.0725646207
Nb            7.4168437283        7.0473321675        1.0728767016
C             1.8143770283        1.7803191669        2.3090767576
C             3.1782089266        1.7802829508        2.3093309464
C             6.7350784335        1.7803447304        2.3096193431
C             8.0989238479        1.7802810437        2.3092550399
C             0.7185210993        3.5356576291        0.0047174355
C             4.2748591524        3.5356420410        0.0057710443
C             5.6386505041        3.5356875630        0.0058528690
C             1.8143772776        5.2917087611        2.3091801564
C             3.1781927383        5.2916481145        2.3094334961
C             6.7351013574        5.2917240521        2.3097115869
C             8.0989358199        5.2916796936        2.3093525659
C             9.1947107327        3.5356199209        0.0048244066
C             0.7185523919        7.0470298068        0.0048025235
C             4.2748549843        7.0470087331        0.0058527871
C             5.6386672588        7.0470548204        0.0059235637
C             9.1947086094        7.0469932600        0.0048983730



     Writing output data file /home/fernando/serse/temp/NB.save/
     NEW-OLD atomic charge density approx. for the potential

     total cpu time spent up to now is     2037.2 secs

     Self-consistent Calculation

     iteration #  1     ecut=    90.00 Ry     beta= 0.70
     Davidson diagonalization with overlap
     ethr =  1.00E-06,  avg # of iterations =  2.0

     Threshold (ethr) on eigenvalues was too large:
     Diagonalizing with lowered threshold

     Davidson diagonalization with overlap
     ethr =  8.74E-08,  avg # of iterations =  2.1

     total cpu time spent up to now is     2118.9 secs

     total energy              =   -1095.25041467 Ry
     estimated scf accuracy    <       0.00017572 Ry

     iteration #  2     ecut=    90.00 Ry     beta= 0.70
     Davidson diagonalization with overlap
     ethr =  1.05E-07,  avg # of iterations =  5.2

     total cpu time spent up to now is     2168.1 secs

     total energy              =   -1095.25025055 Ry
     estimated scf accuracy    <       0.00158363 Ry

     iteration #  3     ecut=    90.00 Ry     beta= 0.70
     Davidson diagonalization with overlap
     ethr =  1.05E-07,  avg # of iterations =  6.1

     total cpu time spent up to now is     2214.8 secs

     total energy              =   -1095.25041475 Ry
     estimated scf accuracy    <       0.00065997 Ry

     iteration #  4     ecut=    90.00 Ry     beta= 0.70
     Davidson diagonalization with overlap
     ethr =  1.05E-07,  avg # of iterations =  5.5

     total cpu time spent up to now is     2256.7 secs

     total energy              =   -1095.25046748 Ry
     estimated scf accuracy    <       0.00023779 Ry

     iteration #  5     ecut=    90.00 Ry     beta= 0.70
     Davidson diagonalization with overlap
     ethr =  1.05E-07,  avg # of iterations =  2.0

     total cpu time spent up to now is     2291.2 secs

     total energy              =   -1095.25048867 Ry
     estimated scf accuracy    <       0.00000598 Ry

     iteration #  6     ecut=    90.00 Ry     beta= 0.70
     Davidson diagonalization with overlap
     ethr =  3.56E-09,  avg # of iterations =  6.1

     total cpu time spent up to now is     2344.8 secs

     total energy              =   -1095.25049153 Ry
     estimated scf accuracy    <       0.00000117 Ry

     iteration #  7     ecut=    90.00 Ry     beta= 0.70
     Davidson diagonalization with overlap
     ethr =  6.99E-10,  avg # of iterations =  5.0

     total cpu time spent up to now is     2388.9 secs

     total energy              =   -1095.25049168 Ry
     estimated scf accuracy    <       0.00000109 Ry

     iteration #  8     ecut=    90.00 Ry     beta= 0.70
     Davidson diagonalization with overlap
     ethr =  6.52E-10,  avg # of iterations =  2.0

     total cpu time spent up to now is     2423.4 secs

     total energy              =   -1095.25049174 Ry
     estimated scf accuracy    <       0.00000042 Ry

     iteration #  9     ecut=    90.00 Ry     beta= 0.70
     Davidson diagonalization with overlap
     ethr =  2.49E-10,  avg # of iterations =  2.8

     total cpu time spent up to now is     2459.1 secs

     total energy              =   -1095.25049177 Ry
     estimated scf accuracy    <       0.00000029 Ry

     iteration # 10     ecut=    90.00 Ry     beta= 0.70
     Davidson diagonalization with overlap
     ethr =  1.73E-10,  avg # of iterations =  2.0

     total cpu time spent up to now is     2493.2 secs

     total energy              =   -1095.25049180 Ry
     estimated scf accuracy    <       0.00000002 Ry

     iteration # 11     ecut=    90.00 Ry     beta= 0.70
     Davidson diagonalization with overlap
     ethr =  1.35E-11,  avg # of iterations =  6.1

     total cpu time spent up to now is     2540.1 secs

     total energy              =   -1095.25049180 Ry
     estimated scf accuracy    <       0.00000001 Ry

     iteration # 12     ecut=    90.00 Ry     beta= 0.70
     Davidson diagonalization with overlap
     ethr =  6.07E-12,  avg # of iterations =  2.5

     total cpu time spent up to now is     2576.2 secs

     total energy              =   -1095.25049180 Ry
     estimated scf accuracy    <          4.8E-09 Ry

     iteration # 13     ecut=    90.00 Ry     beta= 0.70
     Davidson diagonalization with overlap
     ethr =  2.83E-12,  avg # of iterations =  2.0

     total cpu time spent up to now is     2610.4 secs

     total energy              =   -1095.25049180 Ry
     estimated scf accuracy    <          1.2E-09 Ry

     iteration # 14     ecut=    90.00 Ry     beta= 0.70
     Davidson diagonalization with overlap
     ethr =  7.21E-13,  avg # of iterations =  4.3

     total cpu time spent up to now is     2647.9 secs

     total energy              =   -1095.25049180 Ry
     estimated scf accuracy    <          7.7E-10 Ry

     iteration # 15     ecut=    90.00 Ry     beta= 0.70
     Davidson diagonalization with overlap
     ethr =  4.61E-13,  avg # of iterations =  4.5

     total cpu time spent up to now is     2692.8 secs

     total energy              =   -1095.25049180 Ry
     estimated scf accuracy    <          4.6E-10 Ry

     iteration # 16     ecut=    90.00 Ry     beta= 0.70
     Davidson diagonalization with overlap
     ethr =  2.72E-13,  avg # of iterations =  2.4

     total cpu time spent up to now is     2728.2 secs

     End of self-consistent calculation

          k = 0.0000 0.0000 0.0000 (199917 PWs)   bands (ev):

   -59.7936 -59.7369 -59.7369 -59.7276 -59.7272 -59.7270 -59.7266 -59.6795
   -35.1802 -35.1801 -35.0509 -34.9654 -34.9653 -34.9205 -34.8241 -34.7645
   -34.7644 -34.7635 -34.7634 -34.7101 -34.7098 -34.7093 -34.7092 -34.6538
   -34.6493 -34.6490 -34.6437 -34.6436 -34.6016 -34.4193 -34.4193 -34.2571
   -18.0453 -17.6903 -17.6900 -17.6347 -17.4943 -17.4940 -17.3979 -17.3977
   -10.9094 -10.9091 -10.5485 -10.4710 -10.4708  -9.8751  -9.8742  -9.2510
    -9.1357  -8.3905  -8.2888  -8.2884  -7.9422  -7.7847  -7.7845  -7.5825
    -7.5821  -7.4588  -7.4586  -7.3105  -7.3099  -7.2534  -7.2098  -7.2096
    -7.0806  -7.0806  -6.8549  -6.3881  -6.2707  -6.1668  -6.1666  -5.9850
    -5.9848  -5.5826  -5.5818  -4.5330  -4.5328  -4.3690  -4.3690  -3.9704
    -3.9702  -3.7614  -3.7613  -2.5991  -2.5989  -1.8112  -1.5094  -1.4595
    -1.3105  -1.3102  -1.2948  -1.2943  -1.1242  -1.1240  -0.9061  -0.9054
    -0.3700  -0.2099  -0.1986  -0.1984  -0.1083

          k = 0.0000 0.2802 0.0000 (200118 PWs)   bands (ev):

   -59.7900 -59.7457 -59.7360 -59.7359 -59.7280 -59.7280 -59.7104 -59.6814
   -35.1537 -35.1536 -35.0311 -34.9947 -34.9332 -34.8989 -34.8569 -34.8568
   -34.8162 -34.7725 -34.7387 -34.7352 -34.7351 -34.7117 -34.7117 -34.6855
   -34.6599 -34.6249 -34.5930 -34.5929 -34.5267 -34.4307 -34.4306 -34.2760
   -17.9971 -17.6597 -17.6594 -17.6115 -17.5792 -17.4697 -17.4232 -17.4230
   -10.8691 -10.8688 -10.5142 -10.5140 -10.5114 -10.0732  -9.6670  -9.2070
    -9.1764  -8.6512  -8.2868  -8.0013  -7.9302  -7.6687  -7.6685  -7.5960
    -7.5957  -7.5699  -7.4912  -7.4910  -7.1810  -7.1809  -7.1763  -7.1006
    -7.0993  -7.0993  -6.9063  -6.3622  -6.3589  -6.3587  -6.3063  -6.1236
    -6.0582  -6.0467  -4.8911  -4.7030  -4.7029  -4.3710  -4.3708  -4.0448
    -4.0447  -3.3634  -3.3633  -3.0001  -2.2257  -2.1473  -1.7352  -1.4509
    -1.4008  -1.2846  -1.2841  -1.1591  -1.1590  -1.1425  -0.7359  -0.7069
    -0.5937  -0.5895  -0.4120  -0.1006   0.0728

          k = 0.0000 0.5605 0.0000 (200048 PWs)   bands (ev):

   -59.7795 -59.7639 -59.7336 -59.7335 -59.7305 -59.7305 -59.6968 -59.6871
   -35.0798 -35.0797 -34.9892 -34.9737 -34.9736 -34.9735 -34.9623 -34.8845
   -34.8064 -34.7960 -34.7688 -34.7259 -34.7259 -34.7179 -34.7178 -34.7120
   -34.6669 -34.6527 -34.5203 -34.5203 -34.4646 -34.4646 -34.4172 -34.3310
   -17.8715 -17.7155 -17.5823 -17.5821 -17.5553 -17.4972 -17.4919 -17.4917
   -10.7619 -10.7617 -10.6262 -10.6260 -10.4073 -10.2546  -9.4645  -9.2922
    -9.0932  -8.9196  -8.0219  -8.0108  -7.8461  -7.7988  -7.6029  -7.6026
    -7.5569  -7.5567  -7.3397  -7.3396  -7.1436  -7.1415  -7.1415  -7.1256
    -7.1254  -7.0293  -6.8090  -6.8087  -6.7810  -6.4248  -6.3560  -6.3041
    -6.2970  -6.1918  -4.7760  -4.7759  -4.6769  -4.6768  -4.0344  -3.5683
    -3.5682  -3.2355  -3.2353  -3.0936  -2.9518  -2.4155  -1.7016  -1.3556
    -1.2856  -1.2160  -1.2123  -1.2118  -1.1566  -1.1564  -1.0737  -1.0531
    -0.3336  -0.3119  -0.1436   0.0040   0.3794

          k = 0.2000 0.0000 0.0000 (199930 PWs)   bands (ev):

   -59.7909 -59.7545 -59.7276 -59.7272 -59.7269 -59.7266 -59.7193 -59.6824
   -35.1656 -35.1654 -35.0338 -34.9974 -34.9973 -34.9129 -34.8256 -34.8189
   -34.8125 -34.7297 -34.7251 -34.7140 -34.7101 -34.7098 -34.7094 -34.7092
   -34.6586 -34.6159 -34.6156 -34.6096 -34.5328 -34.4354 -34.4354 -34.2774
   -18.0205 -17.7653 -17.6443 -17.6316 -17.4855 -17.4853 -17.4074 -17.4072
   -10.8340 -10.8337 -10.6569 -10.6030 -10.1877 -10.0173 -10.0166  -9.2457
    -9.1113  -8.3277  -8.1669  -8.1665  -7.9391  -7.9359  -7.8758  -7.7416
    -7.5245  -7.5242  -7.3919  -7.3592  -7.2794  -7.2787  -7.2625  -7.0732
    -7.0727  -6.9359  -6.8983  -6.4280  -6.2122  -6.2120  -6.1583  -6.0777
    -6.0776  -5.4439  -5.4433  -4.7118  -4.6689  -4.6686  -4.1544  -4.1541
    -3.6185  -3.5995  -3.1550  -2.7771  -2.7768  -2.1809  -1.9058  -1.4767
    -1.3825  -1.3822  -1.0902  -1.0898  -1.0874  -1.0017  -0.9069  -0.7179
    -0.6897  -0.6892  -0.4657  -0.3135  -0.3132

          k = 0.2000 0.2802 0.0000 (200092 PWs)   bands (ev):

   -59.7873 -59.7527 -59.7448 -59.7334 -59.7226 -59.7192 -59.7112 -59.6841
   -35.1602 -35.1193 -35.0302 -35.0256 -34.9274 -34.9182 -34.9147 -34.8116
   -34.7926 -34.7645 -34.7374 -34.7276 -34.7200 -34.7069 -34.7035 -34.6891
   -34.6867 -34.6665 -34.6338 -34.5053 -34.4959 -34.4782 -34.4133 -34.2917
   -17.9735 -17.7307 -17.6169 -17.6083 -17.5670 -17.4632 -17.4495 -17.4167
   -10.8667 -10.7249 -10.6847 -10.5738 -10.2403 -10.2068  -9.8066  -9.2893
    -9.0664  -8.5143  -8.2204  -7.9901  -7.8956  -7.8231  -7.7532  -7.7279
    -7.6723  -7.5350  -7.4270  -7.3945  -7.2754  -7.1907  -7.1553  -7.1153
    -6.9993  -6.9445  -6.9352  -6.4176  -6.4080  -6.3764  -6.2458  -6.1989
    -6.1303  -5.8665  -4.9449  -4.8929  -4.8149  -4.3982  -4.2336  -3.9098
    -3.7696  -3.3764  -3.0641  -2.9973  -2.4593  -2.3672  -1.7835  -1.7768
    -1.6173  -1.3605  -1.2791  -1.2146  -1.1018  -1.0707  -0.6854  -0.6024
    -0.5024  -0.4948  -0.0456  -0.0016   0.0551

          k = 0.2000 0.5605 0.0000 (200153 PWs)   bands (ev):

   -59.7773 -59.7623 -59.7478 -59.7408 -59.7201 -59.7193 -59.6985 -59.6894
   -35.1075 -35.0307 -35.0285 -35.0209 -35.0199 -34.9106 -34.8949 -34.8303
   -34.8268 -34.7924 -34.7662 -34.7480 -34.7336 -34.7292 -34.7038 -34.7021
   -34.6694 -34.6567 -34.6104 -34.5378 -34.4447 -34.4157 -34.4087 -34.3357
   -17.8511 -17.6993 -17.6420 -17.5515 -17.5483 -17.5356 -17.4924 -17.4707
   -10.8300 -10.7546 -10.5595 -10.4914 -10.3798 -10.3666  -9.5955  -9.4130
    -8.9513  -8.7773  -7.9837  -7.9412  -7.8795  -7.8094  -7.8088  -7.6945
    -7.5302  -7.4141  -7.3954  -7.3867  -7.3286  -7.1578  -7.0941  -7.0577
    -6.9957  -6.9378  -6.8628  -6.8174  -6.7645  -6.5151  -6.3562  -6.2675
    -6.2427  -6.1420  -5.0947  -5.0868  -4.4073  -4.2449  -4.0276  -3.7129
    -3.3408  -3.1951  -3.1778  -3.1476  -2.9382  -2.3716  -1.9341  -1.8334
    -1.6681  -1.6612  -1.1311  -1.1253  -1.1142  -1.0856  -0.5313  -0.5002
    -0.4507  -0.2902   0.0643   0.1210   0.1678

          k = 0.4000 0.0000 0.0000 (200010 PWs)   bands (ev):

   -59.7828 -59.7703 -59.7276 -59.7272 -59.7270 -59.7266 -59.7033 -59.6905
   -35.1238 -35.1237 -35.0622 -35.0621 -34.9845 -34.9095 -34.8908 -34.8563
   -34.8034 -34.7764 -34.7101 -34.7097 -34.7095 -34.7092 -34.6952 -34.6727
   -34.6689 -34.6329 -34.5473 -34.5471 -34.4810 -34.4809 -34.4247 -34.3358
   -17.9525 -17.8596 -17.6261 -17.6257 -17.4621 -17.4618 -17.4322 -17.4320
   -10.7281 -10.6946 -10.6228 -10.6223 -10.3207 -10.3201  -9.8489  -9.5123
    -8.7684  -8.3376  -8.1896  -8.0292  -7.9200  -7.9196  -7.9170  -7.8546
    -7.6890  -7.6886  -7.3344  -7.2902  -7.1957  -7.1951  -7.1945  -7.1048
    -7.1041  -7.0197  -6.7082  -6.5393  -6.2576  -6.2573  -6.2048  -6.2046
    -5.8380  -5.3447  -5.1810  -5.1805  -4.9038  -4.9034  -3.7291  -3.7287
    -3.2209  -3.2204  -3.2038  -3.1851  -2.6643  -2.5916  -2.3082  -1.5586
    -1.4805  -1.4065  -1.2957  -1.2955  -1.1193  -1.1190  -0.8778  -0.6634
    -0.4894  -0.4892  -0.4463  -0.4461  -0.3759

          k = 0.4000 0.2802 0.0000 (200092 PWs)   bands (ev):

   -59.7797 -59.7678 -59.7423 -59.7383 -59.7177 -59.7137 -59.7040 -59.6919
   -35.1379 -35.0906 -35.0621 -35.0061 -34.9920 -34.9697 -34.8653 -34.8027
   -34.7974 -34.7658 -34.7337 -34.7335 -34.7275 -34.6962 -34.6904 -34.6896
   -34.6803 -34.6555 -34.6400 -34.5512 -34.4619 -34.4259 -34.4078 -34.3373
   -17.9087 -17.8203 -17.6018 -17.6008 -17.5343 -17.4906 -17.4466 -17.4276
   -10.7366 -10.7241 -10.6830 -10.4773 -10.4578 -10.1206  -9.9037  -9.5627
    -8.7254  -8.3014  -8.2273  -8.0738  -7.9480  -7.9290  -7.9072  -7.8609
    -7.6162  -7.4709  -7.4381  -7.3072  -7.2216  -7.2066  -7.1578  -7.0829
    -7.0505  -6.9819  -6.7115  -6.5326  -6.4402  -6.3898  -6.3438  -6.3050
    -5.8946  -5.5722  -5.4370  -5.2405  -4.6437  -4.4461  -3.9249  -3.4105
    -3.3755  -3.3515  -3.0253  -2.8427  -2.8246  -2.6017  -2.4447  -2.2320
    -1.7602  -1.4451  -1.1622  -0.8930  -0.8828  -0.7733  -0.6876  -0.6810
    -0.5699  -0.3517  -0.2600  -0.1699  -0.1188

          k = 0.4000 0.5605 0.0000 (200151 PWs)   bands (ev):

   -59.7708 -59.7606 -59.7576 -59.7501 -59.7108 -59.7064 -59.7033 -59.6961
   -35.1080 -35.0807 -35.0464 -35.0463 -34.9612 -34.8893 -34.8410 -34.8081
   -34.7807 -34.7761 -34.7683 -34.7593 -34.7478 -34.7292 -34.7076 -34.6880
   -34.6838 -34.6767 -34.6676 -34.6290 -34.3947 -34.3934 -34.3884 -34.3530
   -17.7952 -17.7188 -17.6552 -17.5950 -17.5430 -17.5383 -17.4807 -17.4699
   -10.7615 -10.7553 -10.6479 -10.5838 -10.2537 -10.0523  -9.9023  -9.7030
    -8.6217  -8.4659  -8.2349  -8.1224  -7.8988  -7.7615  -7.7484  -7.7007
    -7.5673  -7.5298  -7.4655  -7.3270  -7.2441  -7.1887  -7.1339  -7.1279
    -6.9946  -6.8969  -6.7170  -6.7035  -6.6858  -6.6170  -6.5114  -6.4554
    -5.9461  -5.8378  -5.5329  -5.4619  -3.9734  -3.9214  -3.8261  -3.6916
    -3.2966  -3.2720  -3.1799  -2.9480  -2.9141  -2.8025  -2.4328  -2.2590
    -1.7652  -1.3580  -1.3413  -0.9470  -0.9379  -0.9329  -0.7131  -0.6855
    -0.1930   0.0222   0.1308   0.1351   0.3889

          k =-0.2000 0.2802 0.0000 (200092 PWs)   bands (ev):

   -59.7873 -59.7527 -59.7448 -59.7334 -59.7226 -59.7192 -59.7112 -59.6841
   -35.1602 -35.1193 -35.0302 -35.0256 -34.9274 -34.9182 -34.9147 -34.8116
   -34.7926 -34.7645 -34.7374 -34.7276 -34.7200 -34.7069 -34.7035 -34.6891
   -34.6867 -34.6665 -34.6338 -34.5053 -34.4959 -34.4782 -34.4133 -34.2917
   -17.9735 -17.7307 -17.6169 -17.6083 -17.5670 -17.4632 -17.4495 -17.4167
   -10.8668 -10.7249 -10.6847 -10.5738 -10.2403 -10.2067  -9.8066  -9.2893
    -9.0664  -8.5143  -8.2204  -7.9901  -7.8956  -7.8231  -7.7532  -7.7279
    -7.6723  -7.5350  -7.4270  -7.3945  -7.2754  -7.1907  -7.1553  -7.1153
    -6.9993  -6.9445  -6.9352  -6.4176  -6.4080  -6.3764  -6.2458  -6.1989
    -6.1303  -5.8665  -4.9449  -4.8929  -4.8149  -4.3982  -4.2336  -3.9098
    -3.7696  -3.3764  -3.0641  -2.9973  -2.4593  -2.3672  -1.7835  -1.7768
    -1.6173  -1.3605  -1.2791  -1.2146  -1.1018  -1.0707  -0.6854  -0.6024
    -0.5024  -0.4948  -0.0461  -0.0015   0.0554

          k =-0.2000 0.5605 0.0000 (200153 PWs)   bands (ev):

   -59.7773 -59.7623 -59.7478 -59.7408 -59.7201 -59.7193 -59.6985 -59.6894
   -35.1075 -35.0307 -35.0285 -35.0209 -35.0199 -34.9106 -34.8949 -34.8303
   -34.8268 -34.7924 -34.7662 -34.7480 -34.7336 -34.7292 -34.7038 -34.7021
   -34.6694 -34.6567 -34.6104 -34.5378 -34.4447 -34.4157 -34.4087 -34.3357
   -17.8511 -17.6993 -17.6420 -17.5515 -17.5483 -17.5356 -17.4924 -17.4707
   -10.8300 -10.7546 -10.5595 -10.4914 -10.3798 -10.3666  -9.5955  -9.4129
    -8.9513  -8.7773  -7.9837  -7.9412  -7.8795  -7.8094  -7.8088  -7.6945
    -7.5302  -7.4141  -7.3954  -7.3867  -7.3286  -7.1578  -7.0941  -7.0577
    -6.9957  -6.9378  -6.8628  -6.8174  -6.7645  -6.5151  -6.3562  -6.2675
    -6.2427  -6.1420  -5.0947  -5.0868  -4.4073  -4.2449  -4.0276  -3.7129
    -3.3408  -3.1951  -3.1778  -3.1475  -2.9382  -2.3716  -1.9341  -1.8334
    -1.6681  -1.6612  -1.1311  -1.1253  -1.1142  -1.0856  -0.5313  -0.5001
    -0.4508  -0.2902   0.0644   0.1210   0.1678

          k =-0.4000 0.2802 0.0000 (200092 PWs)   bands (ev):

   -59.7797 -59.7678 -59.7423 -59.7383 -59.7177 -59.7137 -59.7040 -59.6919
   -35.1379 -35.0906 -35.0621 -35.0061 -34.9920 -34.9697 -34.8653 -34.8027
   -34.7974 -34.7659 -34.7337 -34.7335 -34.7275 -34.6962 -34.6904 -34.6896
   -34.6803 -34.6555 -34.6400 -34.5512 -34.4619 -34.4259 -34.4078 -34.3373
   -17.9087 -17.8203 -17.6018 -17.6008 -17.5343 -17.4906 -17.4466 -17.4276
   -10.7366 -10.7241 -10.6830 -10.4773 -10.4578 -10.1206  -9.9037  -9.5627
    -8.7254  -8.3014  -8.2273  -8.0738  -7.9479  -7.9290  -7.9072  -7.8609
    -7.6162  -7.4709  -7.4381  -7.3072  -7.2216  -7.2066  -7.1578  -7.0829
    -7.0505  -6.9819  -6.7115  -6.5326  -6.4402  -6.3898  -6.3438  -6.3050
    -5.8946  -5.5722  -5.4370  -5.2405  -4.6437  -4.4461  -3.9249  -3.4105
    -3.3755  -3.3515  -3.0253  -2.8427  -2.8246  -2.6017  -2.4447  -2.2320
    -1.7602  -1.4451  -1.1622  -0.8930  -0.8828  -0.7733  -0.6876  -0.6810
    -0.5699  -0.3517  -0.2600  -0.1705  -0.1221

          k =-0.4000 0.5605 0.0000 (200151 PWs)   bands (ev):

   -59.7708 -59.7606 -59.7576 -59.7501 -59.7108 -59.7064 -59.7033 -59.6961
   -35.1080 -35.0807 -35.0464 -35.0463 -34.9612 -34.8893 -34.8410 -34.8081
   -34.7807 -34.7761 -34.7683 -34.7593 -34.7478 -34.7292 -34.7076 -34.6880
   -34.6838 -34.6767 -34.6676 -34.6290 -34.3947 -34.3934 -34.3884 -34.3530
   -17.7952 -17.7188 -17.6552 -17.5950 -17.5430 -17.5383 -17.4807 -17.4699
   -10.7615 -10.7553 -10.6479 -10.5837 -10.2537 -10.0523  -9.9023  -9.7030
    -8.6217  -8.4659  -8.2349  -8.1224  -7.8988  -7.7615  -7.7484  -7.7007
    -7.5673  -7.5298  -7.4655  -7.3270  -7.2441  -7.1887  -7.1339  -7.1279
    -6.9946  -6.8969  -6.7170  -6.7035  -6.6858  -6.6170  -6.5113  -6.4554
    -5.9461  -5.8378  -5.5329  -5.4619  -3.9734  -3.9214  -3.8261  -3.6916
    -3.2966  -3.2720  -3.1799  -2.9480  -2.9141  -2.8025  -2.4328  -2.2590
    -1.7652  -1.3580  -1.3413  -0.9470  -0.9379  -0.9329  -0.7131  -0.6855
    -0.1930   0.0222   0.1308   0.1351   0.3888

     the Fermi energy is    -2.8957 ev

!    total energy              =   -1095.25049180 Ry
     estimated scf accuracy    <          9.6E-11 Ry
     smearing contrib. (-TS)   =      -0.00681938 Ry
     internal energy E=F+TS    =   -1095.24367242 Ry

     The total energy is F=E-TS. E is the sum of the following terms:
     one-electron contribution =  -11116.65360671 Ry
     hartree contribution      =    5535.91618768 Ry
     xc contribution           =    -164.75613472 Ry
     ewald contribution        =    4650.24988133 Ry

     convergence has been achieved in  16 iterations

     Forces acting on atoms (cartesian axes, Ry/au):

     atom    1 type  1   force =     0.00004080    0.00001118    0.00025465
     atom    2 type  1   force =    -0.00002753    0.00003630    0.00017768
     atom    3 type  1   force =     0.00002240   -0.00004212   -0.00009294
     atom    4 type  1   force =    -0.00003198   -0.00003482   -0.00012076
     atom    5 type  1   force =     0.00003354    0.00002234    0.00021468
     atom    6 type  1   force =    -0.00001760   -0.00000488    0.00013366
     atom    7 type  1   force =     0.00000173    0.00001086   -0.00012548
     atom    8 type  1   force =    -0.00001086    0.00000134   -0.00014843
     atom    9 type  2   force =     0.00007798   -0.00001971   -0.00019397
     atom   10 type  2   force =     0.00000693   -0.00002980   -0.00012108
     atom   11 type  2   force =    -0.00000535   -0.00002991   -0.00013252
     atom   12 type  2   force =    -0.00006550   -0.00002409   -0.00017471
     atom   13 type  2   force =     0.00000805    0.00003058    0.00013287
     atom   14 type  2   force =     0.00001074    0.00002888    0.00009029
     atom   15 type  2   force =    -0.00002426    0.00002907    0.00010819
     atom   16 type  2   force =     0.00005640   -0.00002759   -0.00018628
     atom   17 type  2   force =     0.00003250   -0.00002343   -0.00011053
     atom   18 type  2   force =    -0.00002288   -0.00002269   -0.00012384
     atom   19 type  2   force =    -0.00005821   -0.00003061   -0.00016975
     atom   20 type  2   force =    -0.00000634    0.00002760    0.00013136
     atom   21 type  2   force =    -0.00003086    0.00002604    0.00013568
     atom   22 type  2   force =     0.00002060    0.00001968    0.00008389
     atom   23 type  2   force =    -0.00003983    0.00002196    0.00010217
     atom   24 type  2   force =     0.00002954    0.00002380    0.00013518

     Total force =     0.000753     Total SCF correction =     0.000017
     Energy error            =      2.0E-06 Ry
     Gradient error          =      2.5E-04 Ry/Bohr

     number of scf cycles    =   3
     number of bfgs steps    =   2

     energy             old  =   -1095.2504897840 Ry
     energy             new  =   -1095.2504918047 Ry

     CASE: energy            _new < energy            _old

     new trust radius        =       0.0007614928 bohr
     new conv_thr            =            1.0E-10 Ry


ATOMIC_POSITIONS (angstrom)
Nb            0.0366059566        1.7800231510        1.2416084163
Nb            4.9567030634        1.7800266485        1.2428643145
Nb            2.4964689087        3.5359323517        1.0721652529
Nb            7.4168540118        3.5359366490        1.0724666150
Nb            0.0366145701        5.2914054225        1.2416859201
Nb            4.9566983779        5.2914336932        1.2429559576
Nb            2.4964843661        7.0472724926        1.0722433607
Nb            7.4168481036        7.0472914015        1.0725253962
C             1.8145034487        1.7802897802        2.3087690104
C             3.1782234169        1.7802375947        2.3091440120
C             6.7350734425        1.7803004439        2.3094112061
C             8.0988174149        1.7802450343        2.3089766876
C             0.7185076029        3.5357032853        0.0049792674
C             4.2748883339        3.5356835695        0.0059527032
C             5.6386054456        3.5357307176        0.0060690328
C             1.8144846682        5.2916670050        2.3088747419
C             3.1782323792        5.2916111738        2.3092541425
C             6.7350771087        5.2916885475        2.3095122666
C             8.0988335583        5.2916323276        2.3090749962
C             9.1947244570        3.5356612472        0.0050878254
C             0.7184965601        7.0470714746        0.0050623883
C             4.2748965710        7.0470405373        0.0060253706
C             5.6386006083        7.0470899338        0.0061316149
[...]

     End of self-consistent calculation

          k = 0.0000 0.0000 0.0000 (199917 PWs)   bands (ev):

   -59.7932 -59.7365 -59.7365 -59.7271 -59.7268 -59.7266 -59.7263 -59.6791
   -35.1799 -35.1798 -35.0507 -34.9650 -34.9650 -34.9201 -34.8237 -34.7642
   -34.7642 -34.7631 -34.7631 -34.7097 -34.7095 -34.7090 -34.7089 -34.6534
   -34.6491 -34.6489 -34.6433 -34.6433 -34.6012 -34.4191 -34.4191 -34.2569
   -18.0458 -17.6905 -17.6903 -17.6352 -17.4948 -17.4947 -17.3982 -17.3981
   -10.9098 -10.9097 -10.5480 -10.4716 -10.4714  -9.8743  -9.8736  -9.2516
    -9.1353  -8.3908  -8.2892  -8.2888  -7.9423  -7.7846  -7.7845  -7.5829
    -7.5827  -7.4593  -7.4592  -7.3113  -7.3108  -7.2535  -7.2098  -7.2097
    -7.0805  -7.0804  -6.8552  -6.3881  -6.2709  -6.1675  -6.1674  -5.9852
    -5.9850  -5.5838  -5.5832  -4.5321  -4.5320  -4.3687  -4.3686  -3.9696
    -3.9694  -3.7616  -3.7615  -2.5978  -2.5977  -1.8136  -1.5097  -1.4613
    -1.3103  -1.3101  -1.2947  -1.2944  -1.1236  -1.1234  -0.9037  -0.9032
    -0.3698  -0.2073  -0.1981  -0.1980  -0.1067

          k = 0.0000 0.2802 0.0000 (200118 PWs)   bands (ev):

   -59.7896 -59.7453 -59.7356 -59.7355 -59.7276 -59.7276 -59.7100 -59.6810
   -35.1534 -35.1533 -35.0309 -34.9943 -34.9328 -34.8985 -34.8566 -34.8565
   -34.8158 -34.7724 -34.7383 -34.7348 -34.7348 -34.7113 -34.7113 -34.6851
   -34.6595 -34.6245 -34.5927 -34.5927 -34.5266 -34.4305 -34.4304 -34.2758
   -17.9976 -17.6599 -17.6598 -17.6120 -17.5798 -17.4702 -17.4235 -17.4234
   -10.8695 -10.8694 -10.5147 -10.5146 -10.5110 -10.0725  -9.6663  -9.2076
    -9.1759  -8.6516  -8.2871  -8.0015  -7.9308  -7.6685  -7.6684  -7.5965
    -7.5964  -7.5708  -7.4917  -7.4916  -7.1811  -7.1810  -7.1769  -7.1007
    -7.0991  -7.0991  -6.9066  -6.3623  -6.3596  -6.3595  -6.3066  -6.1238
    -6.0593  -6.0469  -4.8927  -4.7024  -4.7023  -4.3705  -4.3704  -4.0443
    -4.0443  -3.3633  -3.3632  -2.9995  -2.2279  -2.1459  -1.7365  -1.4506
    -1.4007  -1.2844  -1.2842  -1.1586  -1.1585  -1.1401  -0.7353  -0.7046
    -0.5914  -0.5892  -0.4121  -0.0987   0.0733

          k = 0.0000 0.5605 0.0000 (200048 PWs)   bands (ev):

   -59.7791 -59.7635 -59.7331 -59.7331 -59.7301 -59.7301 -59.6964 -59.6867
   -35.0795 -35.0794 -34.9888 -34.9735 -34.9733 -34.9732 -34.9619 -34.8843
   -34.8061 -34.7957 -34.7684 -34.7256 -34.7255 -34.7175 -34.7175 -34.7117
   -34.6665 -34.6523 -34.5201 -34.5201 -34.4644 -34.4643 -34.4170 -34.3308
   -17.8720 -17.7161 -17.5826 -17.5825 -17.5558 -17.4977 -17.4922 -17.4921
   -10.7624 -10.7622 -10.6267 -10.6266 -10.4067 -10.2540  -9.4639  -9.2917
    -9.0937  -8.9200  -8.0223  -8.0112  -7.8468  -7.7995  -7.6032  -7.6031
    -7.5574  -7.5573  -7.3395  -7.3394  -7.1439  -7.1411  -7.1411  -7.1260
    -7.1258  -7.0295  -6.8097  -6.8095  -6.7811  -6.4249  -6.3565  -6.3050
    -6.2971  -6.1919  -4.7754  -4.7754  -4.6764  -4.6764  -4.0361  -3.5680
    -3.5679  -3.2352  -3.2351  -3.0955  -2.9518  -2.4160  -1.7004  -1.3546
    -1.2854  -1.2137  -1.2121  -1.2118  -1.1563  -1.1562  -1.0714  -1.0530
    -0.3341  -0.3096  -0.1415   0.0042   0.3795

          k = 0.2000 0.0000 0.0000 (199930 PWs)   bands (ev):

   -59.7905 -59.7541 -59.7271 -59.7268 -59.7265 -59.7263 -59.7188 -59.6819
   -35.1652 -35.1652 -35.0337 -34.9970 -34.9970 -34.9125 -34.8255 -34.8186
   -34.8121 -34.7293 -34.7248 -34.7136 -34.7096 -34.7094 -34.7090 -34.7089
   -34.6582 -34.6157 -34.6155 -34.6092 -34.5326 -34.4352 -34.4352 -34.2773
   -18.0210 -17.7656 -17.6446 -17.6320 -17.4860 -17.4859 -17.4077 -17.4076
   -10.8344 -10.8342 -10.6575 -10.6028 -10.1881 -10.0168 -10.0162  -9.2455
    -9.1117  -8.3279  -8.1672  -8.1668  -7.9392  -7.9353  -7.8760  -7.7421
    -7.5249  -7.5247  -7.3925  -7.3599  -7.2802  -7.2796  -7.2626  -7.0731
    -7.0728  -6.9358  -6.8986  -6.4280  -6.2130  -6.2129  -6.1584  -6.0782
    -6.0781  -5.4448  -5.4443  -4.7112  -4.6685  -4.6683  -4.1536  -4.1534
    -3.6186  -3.5999  -3.1539  -2.7758  -2.7756  -2.1829  -1.9061  -1.4766
    -1.3822  -1.3820  -1.0896  -1.0893  -1.0874  -1.0037  -0.9051  -0.7166
    -0.6876  -0.6872  -0.4656  -0.3129  -0.3127

          k = 0.2000 0.2802 0.0000 (200092 PWs)   bands (ev):

   -59.7869 -59.7523 -59.7444 -59.7330 -59.7222 -59.7188 -59.7108 -59.6837
   -35.1599 -35.1190 -35.0298 -35.0254 -34.9271 -34.9180 -34.9144 -34.8112
   -34.7923 -34.7641 -34.7370 -34.7274 -34.7196 -34.7065 -34.7031 -34.6888
   -34.6864 -34.6661 -34.6334 -34.5052 -34.4957 -34.4780 -34.4131 -34.2916
   -17.9739 -17.7310 -17.6172 -17.6088 -17.5676 -17.4637 -17.4500 -17.4171
   -10.8672 -10.7254 -10.6852 -10.5735 -10.2408 -10.2063  -9.8062  -9.2890
    -9.0668  -8.5145  -8.2206  -7.9903  -7.8952  -7.8235  -7.7535  -7.7283
    -7.6727  -7.5359  -7.4275  -7.3950  -7.2761  -7.1907  -7.1559  -7.1154
    -6.9991  -6.9448  -6.9350  -6.4184  -6.4081  -6.3772  -6.2464  -6.1991
    -6.1306  -5.8671  -4.9446  -4.8924  -4.8162  -4.3975  -4.2334  -3.9096
    -3.7689  -3.3763  -3.0633  -2.9970  -2.4611  -2.3659  -1.7834  -1.7764
    -1.6166  -1.3602  -1.2798  -1.2144  -1.1018  -1.0702  -0.6836  -0.6015
    -0.5010  -0.4948  -0.0456  -0.0003   0.0563

          k = 0.2000 0.5605 0.0000 (200153 PWs)   bands (ev):

   -59.7768 -59.7619 -59.7474 -59.7404 -59.7197 -59.7189 -59.6981 -59.6890
   -35.1072 -35.0303 -35.0282 -35.0206 -35.0196 -34.9103 -34.8946 -34.8300
   -34.8266 -34.7920 -34.7658 -34.7476 -34.7332 -34.7288 -34.7034 -34.7018
   -34.6691 -34.6563 -34.6101 -34.5375 -34.4445 -34.4154 -34.4086 -34.3356
   -17.8516 -17.6999 -17.6424 -17.5520 -17.5487 -17.5360 -17.4929 -17.4711
   -10.8305 -10.7551 -10.5599 -10.4911 -10.3803 -10.3662  -9.5952  -9.4126
    -8.9515  -8.7774  -7.9842  -7.9415  -7.8796  -7.8100  -7.8091  -7.6949
    -7.5301  -7.4143  -7.3959  -7.3873  -7.3284  -7.1581  -7.0948  -7.0579
    -6.9952  -6.9377  -6.8636  -6.8176  -6.7652  -6.5155  -6.3563  -6.2677
    -6.2431  -6.1425  -5.0943  -5.0864  -4.4067  -4.2445  -4.0290  -3.7128
    -3.3403  -3.1951  -3.1793  -3.1472  -2.9379  -2.3716  -1.9329  -1.8329
    -1.6672  -1.6609  -1.1311  -1.1251  -1.1140  -1.0853  -0.5298  -0.5003
    -0.4497  -0.2889   0.0641   0.1227   0.1681

          k = 0.4000 0.0000 0.0000 (200010 PWs)   bands (ev):

   -59.7824 -59.7699 -59.7271 -59.7268 -59.7266 -59.7263 -59.7029 -59.6901
   -35.1235 -35.1234 -35.0619 -35.0618 -34.9844 -34.9093 -34.8905 -34.8559
   -34.8030 -34.7759 -34.7096 -34.7093 -34.7091 -34.7089 -34.6948 -34.6724
   -34.6685 -34.6325 -34.5470 -34.5469 -34.4808 -34.4807 -34.4246 -34.3356
   -17.9529 -17.8600 -17.6264 -17.6261 -17.4625 -17.4624 -17.4326 -17.4325
   -10.7285 -10.6948 -10.6230 -10.6226 -10.3206 -10.3201  -9.8491  -9.5123
    -8.7683  -8.3372  -8.1898  -8.0294  -7.9201  -7.9198  -7.9173  -7.8550
    -7.6892  -7.6890  -7.3350  -7.2906  -7.1963  -7.1957  -7.1949  -7.1050
    -7.1045  -7.0201  -6.7081  -6.5394  -6.2584  -6.2582  -6.2054  -6.2053
    -5.8379  -5.3444  -5.1815  -5.1811  -4.9039  -4.9035  -3.7281  -3.7277
    -3.2196  -3.2193  -3.2039  -3.1857  -2.6656  -2.5918  -2.3069  -1.5582
    -1.4791  -1.4054  -1.2956  -1.2955  -1.1190  -1.1188  -0.8777  -0.6633
    -0.4878  -0.4877  -0.4453  -0.4452  -0.3774

          k = 0.4000 0.2802 0.0000 (200092 PWs)   bands (ev):

   -59.7793 -59.7674 -59.7419 -59.7379 -59.7173 -59.7133 -59.7036 -59.6915
   -35.1376 -35.0903 -35.0617 -35.0058 -34.9917 -34.9694 -34.8650 -34.8024
   -34.7970 -34.7654 -34.7334 -34.7331 -34.7271 -34.6958 -34.6900 -34.6893
   -34.6799 -34.6551 -34.6398 -34.5509 -34.4617 -34.4257 -34.4076 -34.3372
   -17.9092 -17.8207 -17.6022 -17.6012 -17.5348 -17.4911 -17.4471 -17.4280
   -10.7370 -10.7244 -10.6831 -10.4772 -10.4581 -10.1205  -9.9040  -9.5627
    -8.7254  -8.3010  -8.2274  -8.0740  -7.9483  -7.9292  -7.9074  -7.8613
    -7.6165  -7.4712  -7.4387  -7.3075  -7.2221  -7.2070  -7.1582  -7.0834
    -7.0508  -6.9820  -6.7115  -6.5327  -6.4410  -6.3906  -6.3444  -6.3056
    -5.8946  -5.5726  -5.4367  -5.2406  -4.6443  -4.4462  -3.9240  -3.4094
    -3.3756  -3.3506  -3.0252  -2.8415  -2.8258  -2.6012  -2.4446  -2.2310
    -1.7603  -1.4452  -1.1614  -0.8930  -0.8821  -0.7740  -0.6867  -0.6810
    -0.5692  -0.3511  -0.2584  -0.1699  -0.1197

          k = 0.4000 0.5605 0.0000 (200151 PWs)   bands (ev):

   -59.7703 -59.7602 -59.7572 -59.7497 -59.7103 -59.7059 -59.7029 -59.6956
   -35.1077 -35.0804 -35.0461 -35.0460 -34.9608 -34.8890 -34.8407 -34.8078
   -34.7803 -34.7757 -34.7680 -34.7589 -34.7475 -34.7290 -34.7073 -34.6876
   -34.6834 -34.6763 -34.6672 -34.6288 -34.3945 -34.3932 -34.3882 -34.3529
   -17.7956 -17.7192 -17.6556 -17.5954 -17.5435 -17.5386 -17.4811 -17.4703
   -10.7617 -10.7556 -10.6479 -10.5837 -10.2539 -10.0526  -9.9023  -9.7029
    -8.6217  -8.4659  -8.2347  -8.1224  -7.8993  -7.7616  -7.7488  -7.7013
    -7.5675  -7.5301  -7.4657  -7.3274  -7.2445  -7.1890  -7.1342  -7.1279
    -6.9951  -6.8972  -6.7171  -6.7041  -6.6863  -6.6175  -6.5116  -6.4558
    -5.9462  -5.8381  -5.5328  -5.4619  -3.9741  -3.9212  -3.8258  -3.6913
    -3.2957  -3.2731  -3.1798  -2.9473  -2.9131  -2.8020  -2.4318  -2.2584
    -1.7656  -1.3587  -1.3416  -0.9472  -0.9380  -0.9327  -0.7132  -0.6850
    -0.1926   0.0235   0.1320   0.1361   0.3904

          k =-0.2000 0.2802 0.0000 (200092 PWs)   bands (ev):

   -59.7869 -59.7523 -59.7444 -59.7330 -59.7222 -59.7188 -59.7108 -59.6837
   -35.1599 -35.1190 -35.0298 -35.0254 -34.9271 -34.9180 -34.9144 -34.8112
   -34.7923 -34.7641 -34.7370 -34.7274 -34.7196 -34.7065 -34.7031 -34.6888
   -34.6864 -34.6661 -34.6334 -34.5052 -34.4957 -34.4780 -34.4131 -34.2916
   -17.9739 -17.7310 -17.6172 -17.6088 -17.5676 -17.4637 -17.4500 -17.4171
   -10.8672 -10.7253 -10.6852 -10.5735 -10.2408 -10.2063  -9.8062  -9.2890
    -9.0668  -8.5145  -8.2206  -7.9903  -7.8952  -7.8235  -7.7535  -7.7283
    -7.6727  -7.5359  -7.4275  -7.3950  -7.2760  -7.1907  -7.1559  -7.1154
    -6.9991  -6.9448  -6.9350  -6.4184  -6.4081  -6.3772  -6.2464  -6.1991
    -6.1306  -5.8671  -4.9446  -4.8924  -4.8162  -4.3975  -4.2334  -3.9095
    -3.7689  -3.3763  -3.0633  -2.9970  -2.4611  -2.3659  -1.7834  -1.7764
    -1.6166  -1.3602  -1.2798  -1.2144  -1.1018  -1.0701  -0.6836  -0.6015
    -0.5011  -0.4948  -0.0459  -0.0002   0.0566

          k =-0.2000 0.5605 0.0000 (200153 PWs)   bands (ev):

   -59.7768 -59.7619 -59.7474 -59.7404 -59.7197 -59.7189 -59.6981 -59.6890
   -35.1072 -35.0303 -35.0282 -35.0206 -35.0196 -34.9103 -34.8946 -34.8300
   -34.8266 -34.7920 -34.7658 -34.7476 -34.7332 -34.7288 -34.7034 -34.7018
   -34.6691 -34.6563 -34.6101 -34.5375 -34.4445 -34.4154 -34.4086 -34.3356
   -17.8516 -17.6999 -17.6424 -17.5520 -17.5487 -17.5360 -17.4929 -17.4711
   -10.8305 -10.7551 -10.5599 -10.4911 -10.3803 -10.3662  -9.5952  -9.4126
    -8.9515  -8.7775  -7.9842  -7.9415  -7.8796  -7.8100  -7.8091  -7.6949
    -7.5301  -7.4143  -7.3959  -7.3873  -7.3284  -7.1581  -7.0948  -7.0579
    -6.9952  -6.9377  -6.8636  -6.8176  -6.7652  -6.5155  -6.3563  -6.2677
    -6.2431  -6.1425  -5.0943  -5.0864  -4.4067  -4.2444  -4.0290  -3.7128
    -3.3403  -3.1951  -3.1793  -3.1472  -2.9379  -2.3716  -1.9329  -1.8329
    -1.6672  -1.6610  -1.1311  -1.1252  -1.1140  -1.0852  -0.5298  -0.5003
    -0.4497  -0.2889   0.0641   0.1227   0.1681

          k =-0.4000 0.2802 0.0000 (200092 PWs)   bands (ev):

   -59.7793 -59.7674 -59.7419 -59.7379 -59.7173 -59.7133 -59.7036 -59.6915
   -35.1376 -35.0902 -35.0617 -35.0058 -34.9917 -34.9694 -34.8650 -34.8024
   -34.7970 -34.7654 -34.7334 -34.7331 -34.7271 -34.6958 -34.6900 -34.6893
   -34.6799 -34.6551 -34.6398 -34.5509 -34.4617 -34.4257 -34.4076 -34.3372
   -17.9092 -17.8207 -17.6022 -17.6012 -17.5348 -17.4911 -17.4471 -17.4280
   -10.7370 -10.7244 -10.6831 -10.4772 -10.4581 -10.1205  -9.9040  -9.5627
    -8.7254  -8.3010  -8.2274  -8.0740  -7.9483  -7.9292  -7.9074  -7.8613
    -7.6165  -7.4712  -7.4387  -7.3075  -7.2221  -7.2070  -7.1582  -7.0834
    -7.0508  -6.9820  -6.7115  -6.5327  -6.4410  -6.3906  -6.3444  -6.3056
    -5.8946  -5.5726  -5.4367  -5.2406  -4.6443  -4.4462  -3.9240  -3.4094
    -3.3756  -3.3506  -3.0252  -2.8415  -2.8258  -2.6012  -2.4446  -2.2310
    -1.7603  -1.4452  -1.1614  -0.8930  -0.8821  -0.7740  -0.6867  -0.6810
    -0.5692  -0.3511  -0.2584  -0.1702  -0.1210

          k =-0.4000 0.5605 0.0000 (200151 PWs)   bands (ev):

   -59.7703 -59.7602 -59.7572 -59.7497 -59.7103 -59.7059 -59.7029 -59.6956
   -35.1077 -35.0804 -35.0461 -35.0460 -34.9608 -34.8890 -34.8407 -34.8078
   -34.7803 -34.7757 -34.7680 -34.7589 -34.7475 -34.7290 -34.7073 -34.6876
   -34.6834 -34.6763 -34.6672 -34.6288 -34.3945 -34.3932 -34.3882 -34.3529
   -17.7956 -17.7192 -17.6556 -17.5954 -17.5435 -17.5386 -17.4811 -17.4703
   -10.7618 -10.7556 -10.6479 -10.5837 -10.2539 -10.0526  -9.9023  -9.7029
    -8.6217  -8.4659  -8.2347  -8.1224  -7.8993  -7.7616  -7.7488  -7.7013
    -7.5675  -7.5301  -7.4657  -7.3274  -7.2445  -7.1890  -7.1342  -7.1279
    -6.9951  -6.8972  -6.7171  -6.7041  -6.6863  -6.6175  -6.5116  -6.4559
    -5.9462  -5.8381  -5.5328  -5.4619  -3.9741  -3.9212  -3.8258  -3.6913
    -3.2957  -3.2731  -3.1798  -2.9473  -2.9131  -2.8020  -2.4318  -2.2584
    -1.7655  -1.3588  -1.3416  -0.9472  -0.9380  -0.9327  -0.7131  -0.6851
    -0.1926   0.0235   0.1320   0.1361   0.3904

     the Fermi energy is    -2.8952 ev

!    total energy              =   -1095.25049278 Ry
     estimated scf accuracy    <          3.3E-11 Ry
     smearing contrib. (-TS)   =      -0.00681788 Ry
     internal energy E=F+TS    =   -1095.24367491 Ry

     The total energy is F=E-TS. E is the sum of the following terms:
     one-electron contribution =  -11116.88693690 Ry
     hartree contribution      =    5536.03447664 Ry
     xc contribution           =    -164.75852010 Ry
     ewald contribution        =    4650.36730546 Ry

     convergence has been achieved in  17 iterations

     Forces acting on atoms (cartesian axes, Ry/au):

     atom    1 type  1   force =     0.00000802   -0.00000089   -0.00001787
     atom    2 type  1   force =    -0.00000854    0.00000107   -0.00005586
     atom    3 type  1   force =     0.00005152   -0.00003208    0.00005378
     atom    4 type  1   force =    -0.00004208   -0.00002927    0.00005269
     atom    5 type  1   force =     0.00000307    0.00002012   -0.00001224
     atom    6 type  1   force =    -0.00000514    0.00001406   -0.00004830
     atom    7 type  1   force =     0.00004586    0.00001576    0.00005550
     atom    8 type  1   force =    -0.00003681    0.00001160    0.00005424
     atom    9 type  2   force =    -0.00002260   -0.00002155   -0.00003741
     atom   10 type  2   force =     0.00008350   -0.00002526   -0.00002797
     atom   11 type  2   force =    -0.00006099   -0.00002640   -0.00004089
     atom   12 type  2   force =     0.00001229   -0.00002346   -0.00004435
     atom   13 type  2   force =    -0.00002311    0.00001737    0.00004399
     atom   14 type  2   force =    -0.00002129    0.00001549    0.00001443
     atom   15 type  2   force =     0.00000202    0.00001415    0.00001101
     atom   16 type  2   force =     0.00001386   -0.00001591   -0.00003635
     atom   17 type  2   force =     0.00004959   -0.00001248   -0.00002703
     atom   18 type  2   force =    -0.00004387   -0.00001391   -0.00003997
     atom   19 type  2   force =    -0.00000852   -0.00001736   -0.00004388
     atom   20 type  2   force =     0.00002567    0.00001522    0.00003854
     atom   21 type  2   force =     0.00004501    0.00002385    0.00004348
     atom   22 type  2   force =    -0.00005220    0.00002211    0.00001322
     atom   23 type  2   force =     0.00003128    0.00002319    0.00001142
     atom   24 type  2   force =    -0.00004654    0.00002458    0.00003982

     Total force =     0.000282     Total SCF correction =     0.000008
     Energy error            =      9.8E-07 Ry
     Gradient error          =      8.4E-05 Ry/Bohr

     bfgs converged in   4 scf cycles and   3 bfgs steps
     (criteria: energy <  1.0E-05 Ry, force <  1.0E-04 Ry/Bohr)

     End of BFGS Geometry Optimization

     Final energy             =   -1095.2504927848 Ry

     File /home/fernando/serse/temp/NB.bfgs deleted, as requested
Begin final coordinates

ATOMIC_POSITIONS (angstrom)
Nb            0.0366059566        1.7800231510        1.2416084163
Nb            4.9567030634        1.7800266485        1.2428643145
Nb            2.4964689087        3.5359323517        1.0721652529
Nb            7.4168540118        3.5359366490        1.0724666150
Nb            0.0366145701        5.2914054225        1.2416859201
Nb            4.9566983779        5.2914336932        1.2429559576
Nb            2.4964843661        7.0472724926        1.0722433607
Nb            7.4168481036        7.0472914015        1.0725253962
C             1.8145034487        1.7802897802        2.3087690104
C             3.1782234169        1.7802375947        2.3091440120
C             6.7350734425        1.7803004439        2.3094112061
C             8.0988174149        1.7802450343        2.3089766876
C             0.7185076029        3.5357032853        0.0049792674
C             4.2748883339        3.5356835695        0.0059527032
C             5.6386054456        3.5357307176        0.0060690328
C             1.8144846682        5.2916670050        2.3088747419
C             3.1782323792        5.2916111738        2.3092541425
C             6.7350771087        5.2916885475        2.3095122666
C             8.0988335583        5.2916323276        2.3090749962
C             9.1947244570        3.5356612472        0.0050878254
C             0.7184965601        7.0470714746        0.0050623883
C             4.2748965710        7.0470405373        0.0060253706
C             5.6386006083        7.0470899338        0.0061316149
C             9.1947620617        7.0470297858        0.0051606364
End final coordinates



     Writing output data file /home/fernando/serse/temp/NB.save/
 
     init_run     :     13.27s CPU     13.69s WALL (       1 calls)
     electrons    :   3346.20s CPU   3444.54s WALL (       4 calls)
     update_pot   :      3.09s CPU      3.09s WALL (       3 calls)
     forces       :     16.21s CPU     16.28s WALL (       4 calls)

     Called by init_run:
     wfcinit      :     11.49s CPU     11.77s WALL (       1 calls)
     potinit      :      0.60s CPU      0.63s WALL (       1 calls)
     hinit0       :      0.36s CPU      0.42s WALL (       1 calls)

     Called by electrons:
     c_bands      :   2862.80s CPU   2934.45s WALL (      76 calls)
     sum_band     :    464.83s CPU    467.94s WALL (      76 calls)
     v_of_rho     :     11.90s CPU     12.30s WALL (      77 calls)
     mix_rho      :      4.97s CPU      5.51s WALL (      76 calls)

     Called by c_bands:
     init_us_2    :     26.27s CPU     26.42s WALL (    2041 calls)
     cegterg      :   2757.79s CPU   2772.41s WALL (     988 calls)

     Called by *egterg:
     cdiaghg      :     71.73s CPU     71.98s WALL (    5399 calls)
     h_psi        :   2032.37s CPU   2044.90s WALL (    5490 calls)
     g_psi        :      9.55s CPU      9.60s WALL (    4489 calls)

     Called by h_psi:
     h_psi:calbec :    128.77s CPU    129.19s WALL (    5490 calls)
     vloc_psi     :   1735.28s CPU   1746.13s WALL (    5490 calls)
     add_vuspsi   :    138.14s CPU    138.53s WALL (    5490 calls)

     General routines
     calbec       :    137.57s CPU    138.01s WALL (    5698 calls)
     fft          :      8.11s CPU      8.26s WALL (     926 calls)
     ffts         :      1.16s CPU      1.20s WALL (     153 calls)
     fftw         :   1479.24s CPU   1488.49s WALL (  647588 calls)
     interpolate  :      1.63s CPU      1.68s WALL (      77 calls)
 
     Parallel routines
 
     PWSCF        :  56m21.52s CPU      1h 1m WALL

 
   This run was terminated on:  13:28: 5  29Jan2025            

=------------------------------------------------------------------------------=
   JOB DONE.
=------------------------------------------------------------------------------=
