
     Program PWSCF v.6.8 starts on 30Jan2025 at 16:43:48 

     This program is part of the open-source Quantum ESPRESSO suite
     for quantum simulation of materials; please cite
         "P. Giannozzi et al., J. Phys.:Condens. Matter 21 395502 (2009);
         "P. Giannozzi et al., J. Phys.:Condens. Matter 29 465901 (2017);
         "P. Giannozzi et al., J. Chem. Phys. 152 154105 (2020);
          URL http://www.quantum-espresso.org", 
     in publications or presentations arising from this work. More details at
     http://www.quantum-espresso.org/quote

     Parallel version (MPI & OpenMP), running on      24 processor cores
     Number of MPI processes:                24
     Threads/MPI process:                     1

     MPI processes distributed on     1 nodes
     R & G space division:  proc/nbgrp/npool/nimage =      24
     184741 MiB available memory on the printing compute node when the environment starts
 
     Waiting for input...
     Reading input from standard input

     Current dimensions of program PWSCF are:
     Max number of different atomic species (ntypx) = 10
     Max number of k-points (npk) =  40000
     Max angular momentum in pseudopotentials (lmaxx) =  4

     Subspace diagonalization in iterative solution of the eigenvalue problem:
     a serial algorithm will be used

 
     Parallelization info
     --------------------
     sticks:   dense  smooth     PW     G-vecs:    dense   smooth      PW
     Min         360     360     93                90120    90120   12021
     Max         361     361     94                90131    90131   12038
     Sum        8649    8649   2247              2162975  2162975  288733
 
     Using Slab Decomposition
 

     Title: 
     NB relax                                                                   


     bravais-lattice index     =            8
     lattice parameter (alat)  =      18.5949  a.u.
     unit-cell volume          =   13877.5695 (a.u.)^3
     number of atoms/cell      =           24
     number of atomic types    =            2
     number of electrons       =       168.00
     number of Kohn-Sham states=          101
     kinetic-energy cutoff     =     110.0000  Ry
     charge density cutoff     =     440.0000  Ry
     scf convergence threshold =      1.0E-08
     mixing beta               =       0.7000
     number of iterations used =            8  plain     mixing
     energy convergence thresh.=      1.0E-05
     force convergence thresh. =      1.0E-04
     Exchange-correlation= SLA-PW-PBX-PBC
                           (   1   4   3   4   0   0   0)
     nstep                     =          100


     celldm(1)=  18.594910  celldm(2)=   0.713710  celldm(3)=   3.024194
     celldm(4)=   0.000000  celldm(5)=   0.000000  celldm(6)=   0.000000

     crystal axes: (cart. coord. in units of alat)
               a(1) = (   1.000000   0.000000   0.000000 )  
               a(2) = (   0.000000   0.713710   0.000000 )  
               a(3) = (   0.000000   0.000000   3.024194 )  

     reciprocal axes: (cart. coord. in units 2 pi/alat)
               b(1) = (  1.000000  0.000000  0.000000 )  
               b(2) = (  0.000000  1.401130  0.000000 )  
               b(3) = (  0.000000  0.000000  0.330667 )  


     PseudoPot. # 1 for Nb read from file:
     /home/fernando/serse/pseudos/Nb.pbe-sp-hgh.UPF
     MD5 check sum: 9806bd744c6e87f68d8a90a6c9e3b9fe
     Pseudo is Norm-conserving, Zval = 13.0
     Generated in analytical, separable form
     Using radial grid of 1227 points,  6 beta functions with: 
                l(1) =   0
                l(2) =   0
                l(3) =   1
                l(4) =   1
                l(5) =   2
                l(6) =   2

     PseudoPot. # 2 for C  read from file:
     /home/fernando/serse/pseudos/C.pbe-hgh.UPF
     MD5 check sum: ca26ff84b356733038fc2f5c468d1892
     Pseudo is Norm-conserving, Zval =  4.0
     Generated in analytical, separable form
     Using radial grid of 1073 points,  1 beta functions with: 
                l(1) =   0

     atomic species   valence    mass     pseudopotential
        Nb            13.00    92.90638     Nb( 1.00)
        C              4.00    12.01100     C ( 1.00)

     No symmetry found



   Cartesian axes

     site n.     atom                  positions (alat units)
         1           Nb  tau(   1) = (   0.0037189   0.1808829   0.1260840  )
         2           Nb  tau(   2) = (   0.5037326   0.1808850   0.1262172  )
         3           Nb  tau(   3) = (   0.2537058   0.3593399   0.1090438  )
         4           Nb  tau(   4) = (   0.7537471   0.3593418   0.1090777  )
         5           Nb  tau(   5) = (   0.0037195   0.5377452   0.1261030  )
         6           Nb  tau(   6) = (   0.5037329   0.5377468   0.1262373  )
         7           Nb  tau(   7) = (   0.2537062   0.7162010   0.1090621  )
         8           Nb  tau(   8) = (   0.7537484   0.7162025   0.1090945  )
         9           C   tau(   9) = (   0.1843732   0.1809293   0.2346987  )
        10           C   tau(  10) = (   0.3229861   0.1809274   0.2347104  )
        11           C   tau(  11) = (   0.6844586   0.1809332   0.2347426  )
        12           C   tau(  12) = (   0.8230736   0.1809260   0.2347138  )
        13           C   tau(  13) = (   0.0730254   0.3593101   0.0004423  )
        14           C   tau(  14) = (   0.4344313   0.3593094   0.0005595  )
        15           C   tau(  15) = (   0.5730395   0.3593136   0.0005628  )
        16           C   tau(  16) = (   0.1843750   0.5377792   0.2347108  )
        17           C   tau(  17) = (   0.3229824   0.5377728   0.2347216  )
        18           C   tau(  18) = (   0.6844636   0.5377804   0.2347518  )
        19           C   tau(  19) = (   0.8230732   0.5377771   0.2347250  )
        20           C   tau(  20) = (   0.9344168   0.3593067   0.0004523  )
        21           C   tau(  21) = (   0.0730271   0.7161572   0.0004523  )
        22           C   tau(  22) = (   0.4344325   0.7161560   0.0005685  )
        23           C   tau(  23) = (   0.5730407   0.7161603   0.0005705  )
        24           C   tau(  24) = (   0.9344178   0.7161544   0.0004612  )

     number of k points=    13  Gaussian smearing, width (Ry)=  0.0100
                       cart. coord. in units 2pi/alat
        k(    1) = (   0.0000000   0.0000000   0.0000000), wk =   0.0800000
        k(    2) = (   0.0000000   0.2802260   0.0000000), wk =   0.1600000
        k(    3) = (   0.0000000   0.5604520   0.0000000), wk =   0.1600000
        k(    4) = (   0.2000000   0.0000000   0.0000000), wk =   0.1600000
        k(    5) = (   0.2000000   0.2802260   0.0000000), wk =   0.1600000
        k(    6) = (   0.2000000   0.5604520   0.0000000), wk =   0.1600000
        k(    7) = (   0.4000000   0.0000000   0.0000000), wk =   0.1600000
        k(    8) = (   0.4000000   0.2802260   0.0000000), wk =   0.1600000
        k(    9) = (   0.4000000   0.5604520   0.0000000), wk =   0.1600000
        k(   10) = (  -0.2000000   0.2802260   0.0000000), wk =   0.1600000
        k(   11) = (  -0.2000000   0.5604520   0.0000000), wk =   0.1600000
        k(   12) = (  -0.4000000   0.2802260   0.0000000), wk =   0.1600000
        k(   13) = (  -0.4000000   0.5604520   0.0000000), wk =   0.1600000

     Dense  grid:  2162975 G-vectors     FFT dimensions: ( 125,  90, 375)

     Estimated max dynamical RAM per process >     398.06 MB

     Estimated total dynamical RAM >       9.33 GB

     Initial potential from superposition of free atoms

     starting charge   63.99933, renormalised to  168.00000

     negative rho (up, down):  4.977E-04 0.000E+00
     Starting wfcs are   64 randomized atomic wfcs +   37 random wfcs

     total cpu time spent up to now is       19.9 secs

     Self-consistent Calculation

     iteration #  1     ecut=   110.00 Ry     beta= 0.70
     Davidson diagonalization with overlap
     c_bands:  1 eigenvalues not converged
     c_bands:  1 eigenvalues not converged
     ethr =  1.00E-02,  avg # of iterations = 17.1

     negative rho (up, down):  1.918E-05 0.000E+00

     total cpu time spent up to now is      247.5 secs

     total energy              =    -679.67754254 Ry
     estimated scf accuracy    <    1709.44889818 Ry

     iteration #  2     ecut=   110.00 Ry     beta= 0.70
     Davidson diagonalization with overlap
     ethr =  1.00E-02,  avg # of iterations = 15.1

     total cpu time spent up to now is      453.2 secs

     total energy              =    -693.55477421 Ry
     estimated scf accuracy    <     982.09178080 Ry

     iteration #  3     ecut=   110.00 Ry     beta= 0.70
     Davidson diagonalization with overlap
     c_bands:  2 eigenvalues not converged
     ethr =  1.00E-02,  avg # of iterations = 17.7

     total cpu time spent up to now is      680.4 secs

     total energy              =   -1097.18428011 Ry
     estimated scf accuracy    <     223.71443965 Ry

     iteration #  4     ecut=   110.00 Ry     beta= 0.70
     Davidson diagonalization with overlap
     ethr =  1.00E-02,  avg # of iterations =  8.5

     total cpu time spent up to now is      777.0 secs

     total energy              =   -1107.34839092 Ry
     estimated scf accuracy    <      32.32484468 Ry

     iteration #  5     ecut=   110.00 Ry     beta= 0.70
     Davidson diagonalization with overlap
     ethr =  1.00E-02,  avg # of iterations =  2.9

     total cpu time spent up to now is      837.6 secs

     total energy              =   -1107.01947201 Ry
     estimated scf accuracy    <      43.49242030 Ry

     iteration #  6     ecut=   110.00 Ry     beta= 0.70
     Davidson diagonalization with overlap
     ethr =  1.00E-02,  avg # of iterations =  1.0

     total cpu time spent up to now is      884.0 secs

     total energy              =   -1103.72910461 Ry
     estimated scf accuracy    <      34.24591730 Ry

     iteration #  7     ecut=   110.00 Ry     beta= 0.70
     Davidson diagonalization with overlap
     ethr =  1.00E-02,  avg # of iterations =  1.0

     total cpu time spent up to now is      930.4 secs

     total energy              =   -1099.71816917 Ry
     estimated scf accuracy    <      24.99944765 Ry

     iteration #  8     ecut=   110.00 Ry     beta= 0.70
     Davidson diagonalization with overlap
     ethr =  1.00E-02,  avg # of iterations =  1.1

     total cpu time spent up to now is      978.7 secs

     total energy              =   -1099.05921466 Ry
     estimated scf accuracy    <      13.60246959 Ry

     iteration #  9     ecut=   110.00 Ry     beta= 0.70
     Davidson diagonalization with overlap
     ethr =  8.10E-03,  avg # of iterations =  1.0

     total cpu time spent up to now is     1029.3 secs

     total energy              =   -1098.00390066 Ry
     estimated scf accuracy    <      10.84887773 Ry

     iteration # 10     ecut=   110.00 Ry     beta= 0.70
     Davidson diagonalization with overlap
     ethr =  6.46E-03,  avg # of iterations =  1.5

     total cpu time spent up to now is     1076.4 secs

     total energy              =   -1093.53516037 Ry
     estimated scf accuracy    <       7.60816491 Ry

     iteration # 11     ecut=   110.00 Ry     beta= 0.70
     Davidson diagonalization with overlap
     ethr =  4.53E-03,  avg # of iterations =  5.4

     total cpu time spent up to now is     1145.3 secs

     total energy              =   -1095.33998803 Ry
     estimated scf accuracy    <       0.66953576 Ry

     iteration # 12     ecut=   110.00 Ry     beta= 0.70
     Davidson diagonalization with overlap
     ethr =  3.99E-04,  avg # of iterations =  8.9

     total cpu time spent up to now is     1220.5 secs

     total energy              =   -1095.43613106 Ry
     estimated scf accuracy    <       0.85481908 Ry

     iteration # 13     ecut=   110.00 Ry     beta= 0.70
     Davidson diagonalization with overlap
     ethr =  3.99E-04,  avg # of iterations =  1.3

     total cpu time spent up to now is     1270.0 secs

     total energy              =   -1095.07349268 Ry
     estimated scf accuracy    <       0.66650507 Ry

     iteration # 14     ecut=   110.00 Ry     beta= 0.70
     Davidson diagonalization with overlap
     ethr =  3.97E-04,  avg # of iterations =  5.9

     total cpu time spent up to now is     1338.3 secs

     total energy              =   -1095.31924789 Ry
     estimated scf accuracy    <       0.47405333 Ry

     iteration # 15     ecut=   110.00 Ry     beta= 0.70
     Davidson diagonalization with overlap
     ethr =  2.82E-04,  avg # of iterations =  2.0

     total cpu time spent up to now is     1387.4 secs

     total energy              =   -1095.30058797 Ry
     estimated scf accuracy    <       0.17876553 Ry

     iteration # 16     ecut=   110.00 Ry     beta= 0.70
     Davidson diagonalization with overlap
     ethr =  1.06E-04,  avg # of iterations =  5.4

     negative rho (up, down):  8.812E-04 0.000E+00

     total cpu time spent up to now is     1454.9 secs

     total energy              =   -1095.31503458 Ry
     estimated scf accuracy    <       0.03098973 Ry

     iteration # 17     ecut=   110.00 Ry     beta= 0.70
     Davidson diagonalization with overlap
     c_bands:  2 eigenvalues not converged
     ethr =  1.84E-05,  avg # of iterations = 10.2

     negative rho (up, down):  2.170E-03 0.000E+00

     total cpu time spent up to now is     1525.5 secs

     total energy              =   -1095.31899841 Ry
     estimated scf accuracy    <       0.01124178 Ry

     iteration # 18     ecut=   110.00 Ry     beta= 0.70
     Davidson diagonalization with overlap
     ethr =  6.69E-06,  avg # of iterations =  7.6

     negative rho (up, down):  1.820E-03 0.000E+00

     total cpu time spent up to now is     1586.7 secs

     total energy              =   -1095.31971005 Ry
     estimated scf accuracy    <       0.00806337 Ry

     iteration # 19     ecut=   110.00 Ry     beta= 0.70
     Davidson diagonalization with overlap
     ethr =  4.80E-06,  avg # of iterations =  2.0

     negative rho (up, down):  2.570E-03 0.000E+00

     total cpu time spent up to now is     1639.0 secs

     total energy              =   -1095.32023831 Ry
     estimated scf accuracy    <       0.00440688 Ry

     iteration # 20     ecut=   110.00 Ry     beta= 0.70
     Davidson diagonalization with overlap
     ethr =  2.62E-06,  avg # of iterations =  2.0

     negative rho (up, down):  1.493E-03 0.000E+00

     total cpu time spent up to now is     1689.0 secs

     total energy              =   -1095.32068302 Ry
     estimated scf accuracy    <       0.00072674 Ry

     iteration # 21     ecut=   110.00 Ry     beta= 0.70
     Davidson diagonalization with overlap
     c_bands:  2 eigenvalues not converged
     c_bands:  1 eigenvalues not converged
     ethr =  4.33E-07,  avg # of iterations =  8.2

     negative rho (up, down):  3.069E-04 0.000E+00

     total cpu time spent up to now is     1760.9 secs

     total energy              =   -1095.32072334 Ry
     estimated scf accuracy    <       0.00133142 Ry

     iteration # 22     ecut=   110.00 Ry     beta= 0.70
     Davidson diagonalization with overlap
     c_bands:  1 eigenvalues not converged
     ethr =  4.33E-07,  avg # of iterations =  4.1

     negative rho (up, down):  3.299E-04 0.000E+00

     total cpu time spent up to now is     1815.2 secs

     total energy              =   -1095.32081564 Ry
     estimated scf accuracy    <       0.00021895 Ry

     iteration # 23     ecut=   110.00 Ry     beta= 0.70
     Davidson diagonalization with overlap
     ethr =  1.30E-07,  avg # of iterations =  4.6

     negative rho (up, down):  1.362E-04 0.000E+00

     total cpu time spent up to now is     1871.4 secs

     total energy              =   -1095.32082894 Ry
     estimated scf accuracy    <       0.00008321 Ry

     iteration # 24     ecut=   110.00 Ry     beta= 0.70
     Davidson diagonalization with overlap
     ethr =  4.95E-08,  avg # of iterations =  4.7

     negative rho (up, down):  5.873E-05 0.000E+00

     total cpu time spent up to now is     1935.2 secs

     total energy              =   -1095.32084011 Ry
     estimated scf accuracy    <       0.00001203 Ry

     iteration # 25     ecut=   110.00 Ry     beta= 0.70
     Davidson diagonalization with overlap
     ethr =  7.16E-09,  avg # of iterations =  5.8

     negative rho (up, down):  1.520E-06 0.000E+00

     total cpu time spent up to now is     2010.4 secs

     total energy              =   -1095.32083992 Ry
     estimated scf accuracy    <       0.00002150 Ry

     iteration # 26     ecut=   110.00 Ry     beta= 0.70
     Davidson diagonalization with overlap
     c_bands:  1 eigenvalues not converged
     ethr =  7.16E-09,  avg # of iterations =  6.9

     total cpu time spent up to now is     2077.4 secs

     total energy              =   -1095.32084176 Ry
     estimated scf accuracy    <       0.00002814 Ry

     iteration # 27     ecut=   110.00 Ry     beta= 0.70
     Davidson diagonalization with overlap
     c_bands:  1 eigenvalues not converged
     ethr =  7.16E-09,  avg # of iterations =  5.3

     negative rho (up, down):  8.533E-06 0.000E+00

     total cpu time spent up to now is     2134.7 secs

     total energy              =   -1095.32084402 Ry
     estimated scf accuracy    <       0.00000512 Ry

     iteration # 28     ecut=   110.00 Ry     beta= 0.70
     Davidson diagonalization with overlap
     ethr =  3.05E-09,  avg # of iterations =  2.5

     negative rho (up, down):  1.213E-05 0.000E+00

     total cpu time spent up to now is     2188.3 secs

     total energy              =   -1095.32084435 Ry
     estimated scf accuracy    <       0.00000088 Ry

     iteration # 29     ecut=   110.00 Ry     beta= 0.70
     Davidson diagonalization with overlap
     ethr =  5.21E-10,  avg # of iterations =  6.0

     negative rho (up, down):  8.979E-06 0.000E+00

     total cpu time spent up to now is     2268.5 secs

     total energy              =   -1095.32084459 Ry
     estimated scf accuracy    <       0.00000040 Ry

     iteration # 30     ecut=   110.00 Ry     beta= 0.70
     Davidson diagonalization with overlap
     ethr =  2.36E-10,  avg # of iterations =  2.0

     total cpu time spent up to now is     2317.6 secs

     total energy              =   -1095.32084455 Ry
     estimated scf accuracy    <       0.00000017 Ry

     iteration # 31     ecut=   110.00 Ry     beta= 0.70
     Davidson diagonalization with overlap
     ethr =  1.04E-10,  avg # of iterations =  6.1

     total cpu time spent up to now is     2392.0 secs

     total energy              =   -1095.32084450 Ry
     estimated scf accuracy    <       0.00000134 Ry

     iteration # 32     ecut=   110.00 Ry     beta= 0.70
     Davidson diagonalization with overlap
     ethr =  1.04E-10,  avg # of iterations =  5.7

     total cpu time spent up to now is     2454.3 secs

     total energy              =   -1095.32084459 Ry
     estimated scf accuracy    <       0.00000016 Ry

     iteration # 33     ecut=   110.00 Ry     beta= 0.70
     Davidson diagonalization with overlap
     ethr =  9.59E-11,  avg # of iterations =  2.0

     total cpu time spent up to now is     2504.6 secs

     total energy              =   -1095.32084460 Ry
     estimated scf accuracy    <       0.00000002 Ry

     iteration # 34     ecut=   110.00 Ry     beta= 0.70
     Davidson diagonalization with overlap
     c_bands:  1 eigenvalues not converged
     ethr =  1.28E-11,  avg # of iterations =  6.9

     total cpu time spent up to now is     2582.2 secs

     total energy              =   -1095.32084461 Ry
     estimated scf accuracy    <       0.00000001 Ry

     iteration # 35     ecut=   110.00 Ry     beta= 0.70
     Davidson diagonalization with overlap
     ethr =  6.12E-12,  avg # of iterations =  2.3

     total cpu time spent up to now is     2637.1 secs

     End of self-consistent calculation

          k = 0.0000 0.0000 0.0000 (270233 PWs)   bands (ev):

   -59.7996 -59.7430 -59.7430 -59.7338 -59.7332 -59.7330 -59.7325 -59.6857
   -35.1812 -35.1812 -35.0516 -34.9667 -34.9667 -34.9218 -34.8254 -34.7654
   -34.7653 -34.7648 -34.7648 -34.7115 -34.7111 -34.7106 -34.7103 -34.6550
   -34.6501 -34.6497 -34.6446 -34.6446 -34.6029 -34.4202 -34.4202 -34.2578
   -18.0438 -17.6887 -17.6885 -17.6331 -17.4923 -17.4921 -17.3960 -17.3958
   -10.9088 -10.9088 -10.5493 -10.4703 -10.4702  -9.8765  -9.8754  -9.2513
    -9.1368  -8.3908  -8.2891  -8.2886  -7.9433  -7.7855  -7.7853  -7.5829
    -7.5828  -7.4587  -7.4586  -7.3103  -7.3095  -7.2542  -7.2109  -7.2109
    -7.0821  -7.0821  -6.8559  -6.3897  -6.2718  -6.1663  -6.1662  -5.9859
    -5.9857  -5.5813  -5.5803  -4.5349  -4.5349  -4.3707  -4.3707  -3.9736
    -3.9735  -3.7622  -3.7620  -2.6022  -2.6020  -1.8087  -1.5099  -1.4583
    -1.3126  -1.3124  -1.2963  -1.2963  -1.1267  -1.1266  -0.9125  -0.9117
    -0.3719  -0.2162  -0.2019  -0.2019  -0.1517

          k = 0.0000 0.2802 0.0000 (270322 PWs)   bands (ev):

   -59.7959 -59.7517 -59.7420 -59.7420 -59.7340 -59.7340 -59.7165 -59.6876
   -35.1548 -35.1547 -35.0318 -34.9961 -34.9345 -34.9002 -34.8579 -34.8579
   -34.8174 -34.7732 -34.7399 -34.7364 -34.7363 -34.7130 -34.7129 -34.6867
   -34.6611 -34.6263 -34.5939 -34.5939 -34.5275 -34.4316 -34.4316 -34.2767
   -17.9955 -17.6581 -17.6579 -17.6099 -17.5773 -17.4677 -17.4213 -17.4211
   -10.8685 -10.8685 -10.5135 -10.5134 -10.5122 -10.0744  -9.6683  -9.2074
    -9.1775  -8.6517  -8.2870  -8.0020  -7.9303  -7.6697  -7.6696  -7.5961
    -7.5960  -7.5694  -7.4910  -7.4909  -7.1820  -7.1820  -7.1764  -7.1013
    -7.1009  -7.1009  -6.9072  -6.3637  -6.3585  -6.3584  -6.3070  -6.1246
    -6.0573  -6.0478  -4.8896  -4.7049  -4.7047  -4.3731  -4.3730  -4.0466
    -4.0463  -3.3651  -3.3650  -3.0022  -2.2236  -2.1506  -1.7344  -1.4530
    -1.4020  -1.2862  -1.2861  -1.1614  -1.1612  -1.1487  -0.7387  -0.7138
    -0.6002  -0.5922  -0.4135  -0.1066   0.0695

          k = 0.0000 0.5605 0.0000 (270380 PWs)   bands (ev):

   -59.7855 -59.7700 -59.7396 -59.7395 -59.7365 -59.7365 -59.7030 -59.6933
   -35.0809 -35.0808 -34.9905 -34.9746 -34.9746 -34.9743 -34.9636 -34.8852
   -34.8077 -34.7973 -34.7700 -34.7272 -34.7271 -34.7191 -34.7191 -34.7133
   -34.6682 -34.6540 -34.5213 -34.5212 -34.4655 -34.4655 -34.4179 -34.3317
   -17.8698 -17.7138 -17.5806 -17.5804 -17.5537 -17.4955 -17.4901 -17.4899
   -10.7614 -10.7613 -10.6256 -10.6255 -10.4083 -10.2558  -9.4658  -9.2933
    -9.0939  -8.9204  -8.0220  -8.0110  -7.8458  -7.7988  -7.6031  -7.6030
    -7.5570  -7.5569  -7.3409  -7.3408  -7.1447  -7.1435  -7.1434  -7.1259
    -7.1259  -7.0304  -6.8085  -6.8084  -6.7820  -6.4259  -6.3562  -6.3038
    -6.2983  -6.1930  -4.7778  -4.7776  -4.6789  -4.6787  -4.0328  -3.5700
    -3.5697  -3.2372  -3.2369  -3.0918  -2.9529  -2.4158  -1.7049  -1.3585
    -1.2875  -1.2224  -1.2140  -1.2138  -1.1586  -1.1583  -1.0802  -1.0551
    -0.3342  -0.3184  -0.1499   0.0019   0.3772

          k = 0.2000 0.0000 0.0000 (270326 PWs)   bands (ev):

   -59.7969 -59.7606 -59.7338 -59.7332 -59.7330 -59.7325 -59.7254 -59.6885
   -35.1666 -35.1666 -35.0345 -34.9986 -34.9986 -34.9142 -34.8263 -34.8202
   -34.8138 -34.7309 -34.7262 -34.7153 -34.7114 -34.7110 -34.7106 -34.7103
   -34.6598 -34.6167 -34.6163 -34.6109 -34.5337 -34.4364 -34.4363 -34.2781
   -18.0189 -17.7639 -17.6425 -17.6299 -17.4835 -17.4833 -17.4056 -17.4054
   -10.8338 -10.8335 -10.6564 -10.6034 -10.1871 -10.0185 -10.0175  -9.2465
    -9.1120  -8.3280  -8.1674  -8.1669  -7.9401  -7.9379  -7.8760  -7.7422
    -7.5247  -7.5243  -7.3925  -7.3591  -7.2792  -7.2785  -7.2631  -7.0747
    -7.0742  -6.9375  -6.8993  -6.4295  -6.2117  -6.2116  -6.1595  -6.0780
    -6.0780  -5.4433  -5.4426  -4.7144  -4.6705  -4.6702  -4.1566  -4.1563
    -3.6195  -3.6001  -3.1588  -2.7804  -2.7800  -2.1791  -1.9067  -1.4785
    -1.3848  -1.3846  -1.0927  -1.0923  -1.0892  -1.0003  -0.9119  -0.7231
    -0.6953  -0.6947  -0.4677  -0.3167  -0.3163

          k = 0.2000 0.2802 0.0000 (270322 PWs)   bands (ev):

   -59.7933 -59.7587 -59.7509 -59.7394 -59.7285 -59.7253 -59.7173 -59.6903
   -35.1613 -35.1204 -35.0314 -35.0263 -34.9287 -34.9192 -34.9160 -34.8128
   -34.7937 -34.7656 -34.7386 -34.7284 -34.7212 -34.7081 -34.7048 -34.6902
   -34.6880 -34.6677 -34.6352 -34.5061 -34.4968 -34.4791 -34.4142 -34.2925
   -17.9718 -17.7292 -17.6151 -17.6066 -17.5652 -17.4613 -17.4477 -17.4148
   -10.8665 -10.7246 -10.6841 -10.5742 -10.2398 -10.2078  -9.8077  -9.2901
    -9.0672  -8.5150  -8.2207  -7.9907  -7.8976  -7.8233  -7.7535  -7.7283
    -7.6724  -7.5347  -7.4270  -7.3950  -7.2753  -7.1921  -7.1554  -7.1160
    -7.0009  -6.9453  -6.9366  -6.4171  -6.4094  -6.3760  -6.2460  -6.1999
    -6.1310  -5.8665  -4.9465  -4.8950  -4.8140  -4.4003  -4.2350  -3.9113
    -3.7717  -3.3777  -3.0666  -2.9996  -2.4576  -2.3706  -1.7850  -1.7794
    -1.6202  -1.3627  -1.2799  -1.2168  -1.1036  -1.0730  -0.6906  -0.6059
    -0.5072  -0.4964  -0.0507  -0.0043   0.0080

          k = 0.2000 0.5605 0.0000 (270421 PWs)   bands (ev):

   -59.7833 -59.7683 -59.7538 -59.7468 -59.7261 -59.7253 -59.7046 -59.6956
   -35.1086 -35.0318 -35.0296 -35.0219 -35.0208 -34.9117 -34.8959 -34.8316
   -34.8276 -34.7937 -34.7675 -34.7492 -34.7348 -34.7304 -34.7051 -34.7034
   -34.6707 -34.6580 -34.6114 -34.5387 -34.4456 -34.4166 -34.4095 -34.3365
   -17.8494 -17.6976 -17.6403 -17.5498 -17.5465 -17.5339 -17.4907 -17.4688
   -10.8297 -10.7541 -10.5591 -10.4920 -10.3794 -10.3674  -9.5965  -9.4138
    -8.9522  -8.7782  -7.9838  -7.9414  -7.8805  -7.8093  -7.8091  -7.6947
    -7.5314  -7.4149  -7.3955  -7.3867  -7.3300  -7.1587  -7.0938  -7.0587
    -6.9980  -6.9391  -6.8620  -6.8181  -6.7641  -6.5156  -6.3573  -6.2684
    -6.2432  -6.1422  -5.0963  -5.0886  -4.4092  -4.2467  -4.0266  -3.7142
    -3.3429  -3.1967  -3.1766  -3.1493  -2.9398  -2.3730  -1.9374  -1.8362
    -1.6710  -1.6637  -1.1326  -1.1273  -1.1159  -1.0880  -0.5359  -0.5016
    -0.4545  -0.2946   0.0627   0.1156   0.1686

          k = 0.4000 0.0000 0.0000 (270436 PWs)   bands (ev):

   -59.7889 -59.7764 -59.7338 -59.7332 -59.7330 -59.7325 -59.7094 -59.6967
   -35.1249 -35.1249 -35.0634 -35.0633 -34.9852 -34.9101 -34.8922 -34.8576
   -34.8046 -34.7776 -34.7114 -34.7109 -34.7107 -34.7103 -34.6963 -34.6739
   -34.6703 -34.6342 -34.5481 -34.5479 -34.4819 -34.4817 -34.4255 -34.3365
   -17.9510 -17.8581 -17.6243 -17.6240 -17.4601 -17.4599 -17.4304 -17.4302
   -10.7277 -10.6946 -10.6229 -10.6223 -10.3213 -10.3205  -9.8486  -9.5126
    -8.7696  -8.3395  -8.1900  -8.0294  -7.9206  -7.9201  -7.9179  -7.8553
    -7.6895  -7.6891  -7.3343  -7.2906  -7.1960  -7.1952  -7.1951  -7.1058
    -7.1050  -7.0205  -6.7095  -6.5406  -6.2571  -6.2569  -6.2046  -6.2044
    -5.8396  -5.3467  -5.1813  -5.1806  -4.9049  -4.9043  -3.7318  -3.7313
    -3.2240  -3.2235  -3.2049  -3.1853  -2.6635  -2.5927  -2.3126  -1.5609
    -1.4854  -1.4100  -1.2978  -1.2978  -1.1216  -1.1213  -0.8797  -0.6654
    -0.4941  -0.4939  -0.4500  -0.4497  -0.3752

          k = 0.4000 0.2802 0.0000 (270383 PWs)   bands (ev):

   -59.7857 -59.7738 -59.7483 -59.7444 -59.7237 -59.7198 -59.7101 -59.6980
   -35.1390 -35.0917 -35.0632 -35.0069 -34.9932 -34.9706 -34.8664 -34.8037
   -34.7986 -34.7671 -34.7349 -34.7347 -34.7287 -34.6975 -34.6917 -34.6908
   -34.6816 -34.6568 -34.6408 -34.5521 -34.4627 -34.4267 -34.4086 -34.3381
   -17.9071 -17.8188 -17.6000 -17.5990 -17.5324 -17.4888 -17.4447 -17.4257
   -10.7363 -10.7241 -10.6830 -10.4777 -10.4578 -10.1211  -9.9035  -9.5631
    -8.7268  -8.3032  -8.2281  -8.0742  -7.9484  -7.9297  -7.9076  -7.8612
    -7.6168  -7.4712  -7.4381  -7.3080  -7.2216  -7.2072  -7.1583  -7.0834
    -7.0513  -6.9832  -6.7128  -6.5338  -6.4397  -6.3895  -6.3438  -6.3051
    -5.8960  -5.5727  -5.4387  -5.2416  -4.6437  -4.4469  -3.9274  -3.4132
    -3.3764  -3.3542  -3.0267  -2.8458  -2.8240  -2.6041  -2.4462  -2.2355
    -1.7620  -1.4468  -1.1656  -0.8948  -0.8854  -0.7747  -0.6908  -0.6828
    -0.5730  -0.3552  -0.2647  -0.1728  -0.1251

          k = 0.4000 0.5605 0.0000 (270429 PWs)   bands (ev):

   -59.7768 -59.7666 -59.7636 -59.7562 -59.7168 -59.7124 -59.7093 -59.7022
   -35.1090 -35.0818 -35.0474 -35.0473 -34.9623 -34.8905 -34.8421 -34.8091
   -34.7819 -34.7773 -34.7695 -34.7605 -34.7491 -34.7302 -34.7086 -34.6892
   -34.6850 -34.6780 -34.6688 -34.6300 -34.3955 -34.3942 -34.3893 -34.3538
   -17.7934 -17.7172 -17.6533 -17.5933 -17.5413 -17.5365 -17.4789 -17.4680
   -10.7614 -10.7550 -10.6480 -10.5840 -10.2536 -10.0522  -9.9028  -9.7033
    -8.6231  -8.4670  -8.2364  -8.1234  -7.8989  -7.7619  -7.7487  -7.7006
    -7.5678  -7.5304  -7.4660  -7.3274  -7.2446  -7.1893  -7.1347  -7.1289
    -6.9946  -6.8972  -6.7180  -6.7034  -6.6861  -6.6172  -6.5123  -6.4559
    -5.9470  -5.8383  -5.5343  -5.4631  -3.9734  -3.9227  -3.8278  -3.6932
    -3.2991  -3.2715  -3.1813  -2.9506  -2.9172  -2.8046  -2.4358  -2.2615
    -1.7665  -1.3586  -1.3427  -0.9489  -0.9394  -0.9348  -0.7145  -0.6878
    -0.1957   0.0178   0.1267   0.1315   0.3859

          k =-0.2000 0.2802 0.0000 (270322 PWs)   bands (ev):

   -59.7933 -59.7587 -59.7509 -59.7394 -59.7285 -59.7253 -59.7173 -59.6903
   -35.1613 -35.1204 -35.0314 -35.0263 -34.9287 -34.9192 -34.9160 -34.8128
   -34.7937 -34.7656 -34.7386 -34.7284 -34.7212 -34.7081 -34.7048 -34.6902
   -34.6880 -34.6677 -34.6352 -34.5061 -34.4968 -34.4791 -34.4142 -34.2925
   -17.9718 -17.7292 -17.6151 -17.6066 -17.5652 -17.4613 -17.4477 -17.4148
   -10.8665 -10.7246 -10.6841 -10.5742 -10.2398 -10.2077  -9.8077  -9.2901
    -9.0672  -8.5150  -8.2207  -7.9907  -7.8976  -7.8233  -7.7535  -7.7283
    -7.6724  -7.5347  -7.4270  -7.3950  -7.2753  -7.1921  -7.1554  -7.1160
    -7.0009  -6.9453  -6.9366  -6.4171  -6.4094  -6.3760  -6.2460  -6.1999
    -6.1310  -5.8665  -4.9465  -4.8951  -4.8140  -4.4003  -4.2350  -3.9113
    -3.7717  -3.3777  -3.0666  -2.9996  -2.4576  -2.3706  -1.7850  -1.7794
    -1.6202  -1.3627  -1.2799  -1.2168  -1.1036  -1.0730  -0.6906  -0.6060
    -0.5072  -0.4964  -0.0507   0.0079   0.0451

          k =-0.2000 0.5605 0.0000 (270421 PWs)   bands (ev):

   -59.7833 -59.7683 -59.7538 -59.7468 -59.7261 -59.7253 -59.7046 -59.6956
   -35.1086 -35.0318 -35.0296 -35.0219 -35.0208 -34.9117 -34.8959 -34.8316
   -34.8276 -34.7937 -34.7675 -34.7492 -34.7348 -34.7304 -34.7051 -34.7034
   -34.6707 -34.6580 -34.6114 -34.5387 -34.4456 -34.4166 -34.4095 -34.3365
   -17.8494 -17.6976 -17.6403 -17.5498 -17.5465 -17.5339 -17.4907 -17.4688
   -10.8297 -10.7541 -10.5591 -10.4920 -10.3794 -10.3674  -9.5965  -9.4138
    -8.9522  -8.7782  -7.9838  -7.9414  -7.8805  -7.8093  -7.8091  -7.6947
    -7.5314  -7.4149  -7.3955  -7.3866  -7.3300  -7.1587  -7.0938  -7.0587
    -6.9980  -6.9391  -6.8620  -6.8181  -6.7641  -6.5156  -6.3573  -6.2684
    -6.2432  -6.1422  -5.0963  -5.0886  -4.4092  -4.2467  -4.0266  -3.7142
    -3.3429  -3.1967  -3.1766  -3.1493  -2.9398  -2.3730  -1.9374  -1.8362
    -1.6710  -1.6637  -1.1327  -1.1274  -1.1159  -1.0880  -0.5359  -0.5016
    -0.4546  -0.2946   0.0627   0.1163   0.1676

          k =-0.4000 0.2802 0.0000 (270383 PWs)   bands (ev):

   -59.7857 -59.7738 -59.7483 -59.7444 -59.7237 -59.7198 -59.7101 -59.6980
   -35.1390 -35.0917 -35.0632 -35.0069 -34.9932 -34.9706 -34.8664 -34.8037
   -34.7986 -34.7671 -34.7349 -34.7347 -34.7287 -34.6975 -34.6917 -34.6908
   -34.6816 -34.6568 -34.6408 -34.5521 -34.4627 -34.4267 -34.4086 -34.3381
   -17.9072 -17.8188 -17.6000 -17.5990 -17.5324 -17.4888 -17.4447 -17.4257
   -10.7363 -10.7242 -10.6830 -10.4777 -10.4578 -10.1211  -9.9035  -9.5631
    -8.7268  -8.3032  -8.2281  -8.0742  -7.9484  -7.9297  -7.9076  -7.8612
    -7.6168  -7.4712  -7.4381  -7.3080  -7.2216  -7.2072  -7.1583  -7.0834
    -7.0513  -6.9832  -6.7128  -6.5338  -6.4397  -6.3895  -6.3438  -6.3051
    -5.8960  -5.5727  -5.4388  -5.2415  -4.6437  -4.4469  -3.9274  -3.4132
    -3.3764  -3.3542  -3.0267  -2.8458  -2.8240  -2.6041  -2.4462  -2.2355
    -1.7619  -1.4468  -1.1656  -0.8948  -0.8854  -0.7747  -0.6908  -0.6828
    -0.5730  -0.3552  -0.2646  -0.1728  -0.1246

          k =-0.4000 0.5605 0.0000 (270429 PWs)   bands (ev):

   -59.7768 -59.7666 -59.7636 -59.7562 -59.7168 -59.7124 -59.7093 -59.7022
   -35.1090 -35.0818 -35.0474 -35.0473 -34.9623 -34.8905 -34.8421 -34.8091
   -34.7819 -34.7773 -34.7695 -34.7605 -34.7491 -34.7302 -34.7086 -34.6892
   -34.6850 -34.6780 -34.6688 -34.6300 -34.3955 -34.3942 -34.3893 -34.3538
   -17.7935 -17.7172 -17.6533 -17.5933 -17.5413 -17.5365 -17.4789 -17.4680
   -10.7614 -10.7550 -10.6480 -10.5840 -10.2536 -10.0522  -9.9028  -9.7033
    -8.6231  -8.4670  -8.2364  -8.1234  -7.8989  -7.7619  -7.7487  -7.7006
    -7.5678  -7.5304  -7.4660  -7.3274  -7.2446  -7.1893  -7.1347  -7.1289
    -6.9946  -6.8973  -6.7181  -6.7034  -6.6861  -6.6172  -6.5123  -6.4559
    -5.9470  -5.8384  -5.5343  -5.4630  -3.9734  -3.9227  -3.8278  -3.6932
    -3.2991  -3.2715  -3.1813  -2.9506  -2.9172  -2.8046  -2.4358  -2.2615
    -1.7665  -1.3587  -1.3428  -0.9489  -0.9394  -0.9347  -0.7145  -0.6878
    -0.1957   0.0178   0.1267   0.1315   0.3845

     the Fermi energy is    -2.8977 ev

!    total energy              =   -1095.32084461 Ry
     estimated scf accuracy    <          1.8E-09 Ry
     smearing contrib. (-TS)   =      -0.00682093 Ry
     internal energy E=F+TS    =   -1095.31402368 Ry

     The total energy is F=E-TS. E is the sum of the following terms:
     one-electron contribution =  -11116.49568080 Ry
     hartree contribution      =    5535.83310109 Ry
     xc contribution           =    -164.75999988 Ry
     ewald contribution        =    4650.10855590 Ry

     convergence has been achieved in  35 iterations

     Forces acting on atoms (cartesian axes, Ry/au):

     atom    1 type  1   force =    -0.00001134    0.00007874    0.00039799
     atom    2 type  1   force =     0.00001265    0.00005519    0.00035863
     atom    3 type  1   force =     0.00000492   -0.00000970   -0.00028040
     atom    4 type  1   force =    -0.00000110    0.00003400   -0.00030535
     atom    5 type  1   force =    -0.00005415   -0.00001935    0.00032758
     atom    6 type  1   force =     0.00004756    0.00001307    0.00028423
     atom    7 type  1   force =     0.00002445   -0.00005236   -0.00033292
     atom    8 type  1   force =    -0.00003141   -0.00009986   -0.00036161
     atom    9 type  2   force =     0.00265214   -0.00000852   -0.00060577
     atom   10 type  2   force =    -0.00261489   -0.00005520   -0.00044571
     atom   11 type  2   force =     0.00260790   -0.00008237   -0.00047595
     atom   12 type  2   force =    -0.00261019   -0.00000100   -0.00056561
     atom   13 type  2   force =    -0.00262355    0.00001670    0.00053210
     atom   14 type  2   force =     0.00253100    0.00006614    0.00047960
     atom   15 type  2   force =    -0.00256077    0.00005832    0.00051644
     atom   16 type  2   force =     0.00260922   -0.00002386   -0.00061627
     atom   17 type  2   force =    -0.00256378   -0.00005261   -0.00045140
     atom   18 type  2   force =     0.00255731   -0.00008349   -0.00047586
     atom   19 type  2   force =    -0.00257214   -0.00002030   -0.00057496
     atom   20 type  2   force =     0.00262885    0.00004718    0.00054486
     atom   21 type  2   force =    -0.00258924    0.00000765    0.00052363
     atom   22 type  2   force =     0.00249319    0.00005350    0.00047580
     atom   23 type  2   force =    -0.00253078    0.00004468    0.00051407
     atom   24 type  2   force =     0.00259412    0.00003345    0.00053688

     Total force =     0.010591     Total SCF correction =     0.000064

     BFGS Geometry Optimization
     Energy error            =      0.0E+00 Ry
     Gradient error          =      2.7E-03 Ry/Bohr

     number of scf cycles    =   1
     number of bfgs steps    =   0

     energy             new  =   -1095.3208446069 Ry

     new trust radius        =       0.0027204585 bohr
     new conv_thr            =       0.0000000100 Ry


ATOMIC_POSITIONS (angstrom)
Nb            0.0365882110        1.7799302170        1.2408773589
Nb            4.9567371166        1.7799380006        1.2421670926
Nb            2.4964681318        3.5359005513        1.0728424499
Nb            7.4168724997        3.5359424445        1.0731635467
Nb            0.0365712485        5.2914038272        1.2410269999
Nb            4.9567580944        5.2914372022        1.2423259078
Nb            2.4964826352        7.0473918803        1.0729955193
Nb            7.4168695313        7.0473812750        1.0732988565
C             1.8156363467        1.7803401410        2.3091147944
C             3.1768007407        1.7802966641        2.3093149389
C             6.7364548080        1.7803393262        2.3096159009
C             8.0976648479        1.7803113331        2.3092853420
C             0.7171819682        3.5356212548        0.0046340174
C             4.2761441482        3.5356406918        0.0057591109
C             5.6373555364        3.5356776664        0.0058108317
C             1.8156309650        5.2917356504        2.3092288254
C             3.1767909462        5.2916581082        2.3094221470
C             6.7364769717        5.2917164783        2.3097069289
C             8.0976816165        5.2917174065        2.3093908361
C             9.1960548445        3.5356036952        0.0047391820
C             0.7172168370        7.0469929947        0.0047273427
C             4.2761366949        7.0470053198        0.0058453821
C             5.6373830751        7.0470431753        0.0058855349
C             9.1960466208        7.0469789645        0.0048222890



     Writing output data file /home/fernando/serse/temp/NB.save/
     NEW-OLD atomic charge density approx. for the potential

     negative rho (up, down):  2.871E-06 0.000E+00

     total cpu time spent up to now is     2671.8 secs

     Self-consistent Calculation

     iteration #  1     ecut=   110.00 Ry     beta= 0.70
     Davidson diagonalization with overlap
     ethr =  1.00E-06,  avg # of iterations =  3.0

     Threshold (ethr) on eigenvalues was too large:
     Diagonalizing with lowered threshold

     Davidson diagonalization with overlap
     ethr =  5.64E-08,  avg # of iterations =  3.9

     negative rho (up, down):  2.722E-07 0.000E+00

     total cpu time spent up to now is     2806.1 secs

     total energy              =   -1095.32082687 Ry
     estimated scf accuracy    <       0.00011030 Ry

     iteration #  2     ecut=   110.00 Ry     beta= 0.70
     Davidson diagonalization with overlap
     ethr =  6.57E-08,  avg # of iterations =  4.9

     negative rho (up, down):  1.233E-07 0.000E+00

     total cpu time spent up to now is     2874.9 secs

     total energy              =   -1095.32078851 Ry
     estimated scf accuracy    <       0.00033994 Ry

     iteration #  3     ecut=   110.00 Ry     beta= 0.70
     Davidson diagonalization with overlap
     ethr =  6.57E-08,  avg # of iterations =  6.0

     negative rho (up, down):  4.043E-08 0.000E+00

     total cpu time spent up to now is     2940.0 secs

     total energy              =   -1095.32080573 Ry
     estimated scf accuracy    <       0.00063736 Ry

     iteration #  4     ecut=   110.00 Ry     beta= 0.70
     Davidson diagonalization with overlap
     ethr =  6.57E-08,  avg # of iterations =  5.6

     total cpu time spent up to now is     3001.9 secs

     total energy              =   -1095.32086003 Ry
     estimated scf accuracy    <       0.00004976 Ry

     iteration #  5     ecut=   110.00 Ry     beta= 0.70
     Davidson diagonalization with overlap
     ethr =  2.96E-08,  avg # of iterations =  3.1

     total cpu time spent up to now is     3053.7 secs

     total energy              =   -1095.32086599 Ry
     estimated scf accuracy    <       0.00001390 Ry

     iteration #  6     ecut=   110.00 Ry     beta= 0.70
     Davidson diagonalization with overlap
     ethr =  8.27E-09,  avg # of iterations =  3.0

     total cpu time spent up to now is     3105.2 secs

     total energy              =   -1095.32086816 Ry
     estimated scf accuracy    <       0.00000042 Ry

     iteration #  7     ecut=   110.00 Ry     beta= 0.70
     Davidson diagonalization with overlap
     ethr =  2.50E-10,  avg # of iterations =  8.5

     total cpu time spent up to now is     3198.0 secs

     total energy              =   -1095.32086850 Ry
     estimated scf accuracy    <       0.00000057 Ry

     iteration #  8     ecut=   110.00 Ry     beta= 0.70
     Davidson diagonalization with overlap
     ethr =  2.50E-10,  avg # of iterations =  3.2

     total cpu time spent up to now is     3257.7 secs

     total energy              =   -1095.32086856 Ry
     estimated scf accuracy    <       0.00000019 Ry

     iteration #  9     ecut=   110.00 Ry     beta= 0.70
     Davidson diagonalization with overlap
     ethr =  1.11E-10,  avg # of iterations =  2.2

     total cpu time spent up to now is     3308.2 secs

     total energy              =   -1095.32086856 Ry
     estimated scf accuracy    <       0.00000008 Ry

     iteration # 10     ecut=   110.00 Ry     beta= 0.70
     Davidson diagonalization with overlap
     ethr =  5.01E-11,  avg # of iterations =  4.7

     total cpu time spent up to now is     3362.0 secs

     total energy              =   -1095.32086857 Ry
     estimated scf accuracy    <       0.00000007 Ry

     iteration # 11     ecut=   110.00 Ry     beta= 0.70
     Davidson diagonalization with overlap
     ethr =  4.09E-11,  avg # of iterations =  2.0

     total cpu time spent up to now is     3414.0 secs

     End of self-consistent calculation

          k = 0.0000 0.0000 0.0000 (270233 PWs)   bands (ev):

   -59.7981 -59.7415 -59.7415 -59.7322 -59.7317 -59.7315 -59.7310 -59.6842
   -35.1798 -35.1798 -35.0493 -34.9656 -34.9656 -34.9205 -34.8239 -34.7638
   -34.7638 -34.7635 -34.7635 -34.7099 -34.7096 -34.7091 -34.7088 -34.6536
   -34.6479 -34.6475 -34.6425 -34.6425 -34.6017 -34.4184 -34.4184 -34.2557
   -18.0594 -17.7063 -17.7062 -17.6512 -17.5098 -17.5097 -17.4140 -17.4140
   -10.9025 -10.9025 -10.5406 -10.4631 -10.4630  -9.8687  -9.8678  -9.2582
    -9.1293  -8.3978  -8.2931  -8.2927  -7.9515  -7.7942  -7.7941  -7.5920
    -7.5919  -7.4667  -7.4667  -7.3191  -7.3184  -7.2568  -7.2097  -7.2096
    -7.0813  -7.0813  -6.8681  -6.3891  -6.2656  -6.1755  -6.1755  -5.9886
    -5.9884  -5.5743  -5.5734  -4.5265  -4.5265  -4.3653  -4.3653  -3.9672
    -3.9671  -3.7539  -3.7537  -2.6046  -2.6044  -1.8025  -1.5119  -1.4589
    -1.3147  -1.3145  -1.2977  -1.2976  -1.1246  -1.1245  -0.9003  -0.8996
    -0.3720  -0.2039  -0.2039  -0.2013  -0.1564

          k = 0.0000 0.2802 0.0000 (270322 PWs)   bands (ev):

   -59.7944 -59.7502 -59.7405 -59.7405 -59.7325 -59.7325 -59.7150 -59.6861
   -35.1533 -35.1533 -35.0295 -34.9950 -34.9332 -34.8991 -34.8564 -34.8564
   -34.8159 -34.7710 -34.7384 -34.7349 -34.7349 -34.7114 -34.7114 -34.6852
   -34.6597 -34.6250 -34.5920 -34.5920 -34.5253 -34.4298 -34.4298 -34.2746
   -18.0112 -17.6758 -17.6757 -17.6280 -17.5944 -17.4856 -17.4393 -17.4392
   -10.8622 -10.8621 -10.5064 -10.5063 -10.5035 -10.0663  -9.6608  -9.2141
    -9.1700  -8.6558  -8.2940  -8.0096  -7.9350  -7.6786  -7.6785  -7.6044
    -7.6043  -7.5775  -7.4988  -7.4987  -7.1863  -7.1812  -7.1812  -7.1044
    -7.1006  -7.1005  -6.9188  -6.3673  -6.3672  -6.3636  -6.3008  -6.1277
    -6.0507  -6.0496  -4.8823  -4.6976  -4.6975  -4.3666  -4.3665  -4.0404
    -4.0402  -3.3567  -3.3566  -3.0041  -2.2167  -2.1535  -1.7345  -1.4533
    -1.4048  -1.2871  -1.2871  -1.1586  -1.1584  -1.1371  -0.7391  -0.7017
    -0.5954  -0.5873  -0.4131  -0.0908   0.0675

          k = 0.0000 0.5605 0.0000 (270380 PWs)   bands (ev):

   -59.7840 -59.7685 -59.7380 -59.7380 -59.7350 -59.7350 -59.7015 -59.6918
   -35.0794 -35.0794 -34.9894 -34.9731 -34.9731 -34.9721 -34.9624 -34.8829
   -34.8067 -34.7958 -34.7685 -34.7257 -34.7256 -34.7176 -34.7176 -34.7121
   -34.6667 -34.6525 -34.5194 -34.5194 -34.4637 -34.4637 -34.4158 -34.3296
   -17.8859 -17.7303 -17.5984 -17.5983 -17.5718 -17.5135 -17.5080 -17.5079
   -10.7548 -10.7548 -10.6188 -10.6187 -10.3997 -10.2474  -9.4584  -9.2858
    -9.0998  -8.9252  -8.0289  -8.0183  -7.8534  -7.8048  -7.6105  -7.6104
    -7.5643  -7.5642  -7.3501  -7.3500  -7.1551  -7.1448  -7.1448  -7.1252
    -7.1252  -7.0411  -6.8156  -6.8156  -6.7854  -6.4292  -6.3501  -6.2988
    -6.2976  -6.1940  -4.7711  -4.7709  -4.6724  -4.6723  -4.0252  -3.5637
    -3.5635  -3.2295  -3.2293  -3.0842  -2.9538  -2.4159  -1.7087  -1.3628
    -1.2872  -1.2123  -1.2120  -1.2111  -1.1549  -1.1546  -1.0689  -1.0551
    -0.3328  -0.3045  -0.1349   0.0030   0.3742

          k = 0.2000 0.0000 0.0000 (270326 PWs)   bands (ev):

   -59.7954 -59.7590 -59.7322 -59.7317 -59.7315 -59.7310 -59.7239 -59.6871
   -35.1652 -35.1652 -35.0322 -34.9975 -34.9975 -34.9129 -34.8245 -34.8187
   -34.8125 -34.7291 -34.7247 -34.7140 -34.7099 -34.7096 -34.7091 -34.7088
   -34.6584 -34.6146 -34.6143 -34.6097 -34.5315 -34.4345 -34.4344 -34.2761
   -18.0346 -17.7811 -17.6606 -17.6481 -17.5010 -17.5010 -17.4236 -17.4235
   -10.8275 -10.8272 -10.6493 -10.5953 -10.1798 -10.0112 -10.0103  -9.2393
    -9.1182  -8.3348  -8.1710  -8.1705  -7.9483  -7.9451  -7.8842  -7.7507
    -7.5312  -7.5309  -7.4024  -7.3594  -7.2878  -7.2872  -7.2656  -7.0761
    -7.0756  -6.9365  -6.9113  -6.4288  -6.2195  -6.2193  -6.1534  -6.0800
    -6.0800  -5.4372  -5.4366  -4.7083  -4.6636  -4.6633  -4.1507  -4.1504
    -3.6123  -3.5915  -3.1518  -2.7808  -2.7804  -2.1737  -1.9056  -1.4791
    -1.3859  -1.3858  -1.0914  -1.0911  -1.0906  -0.9998  -0.9080  -0.7143
    -0.6863  -0.6858  -0.4672  -0.3174  -0.3170

          k = 0.2000 0.2802 0.0000 (270322 PWs)   bands (ev):

   -59.7918 -59.7572 -59.7493 -59.7379 -59.7270 -59.7238 -59.7158 -59.6888
   -35.1598 -35.1190 -35.0302 -35.0242 -34.9276 -34.9176 -34.9146 -34.8113
   -34.7923 -34.7642 -34.7371 -34.7263 -34.7197 -34.7067 -34.7033 -34.6883
   -34.6865 -34.6663 -34.6339 -34.5040 -34.4948 -34.4773 -34.4123 -34.2904
   -17.9876 -17.7465 -17.6332 -17.6248 -17.5823 -17.4791 -17.4656 -17.4329
   -10.8602 -10.7182 -10.6772 -10.5662 -10.2326 -10.2004  -9.8006  -9.2829
    -9.0731  -8.5183  -8.2276  -7.9983  -7.9035  -7.8278  -7.7617  -7.7368
    -7.6778  -7.5427  -7.4349  -7.4045  -7.2766  -7.1947  -7.1652  -7.1190
    -7.0016  -6.9568  -6.9356  -6.4246  -6.4091  -6.3830  -6.2471  -6.1938
    -6.1324  -5.8622  -4.9401  -4.8892  -4.8070  -4.3928  -4.2294  -3.9039
    -3.7662  -3.3700  -3.0669  -2.9919  -2.4516  -2.3714  -1.7841  -1.7770
    -1.6158  -1.3623  -1.2780  -1.2158  -1.1049  -1.0695  -0.6832  -0.6041
    -0.5021  -0.4964  -0.0500   0.0037   0.0049

          k = 0.2000 0.5605 0.0000 (270421 PWs)   bands (ev):

   -59.7818 -59.7668 -59.7523 -59.7453 -59.7246 -59.7238 -59.7031 -59.6941
   -35.1071 -35.0304 -35.0282 -35.0204 -35.0191 -34.9103 -34.8942 -34.8304
   -34.8256 -34.7921 -34.7659 -34.7477 -34.7333 -34.7292 -34.7036 -34.7019
   -34.6692 -34.6565 -34.6095 -34.5369 -34.4437 -34.4147 -34.4074 -34.3344
   -17.8656 -17.7142 -17.6578 -17.5679 -17.5645 -17.5516 -17.5087 -17.4869
   -10.8232 -10.7474 -10.5525 -10.4842 -10.3725 -10.3599  -9.5894  -9.4066
    -8.9571  -8.7821  -7.9912  -7.9483  -7.8852  -7.8167  -7.8139  -7.7005
    -7.5392  -7.4242  -7.4042  -7.3952  -7.3348  -7.1690  -7.0964  -7.0691
    -7.0032  -6.9376  -6.8642  -6.8213  -6.7694  -6.5175  -6.3576  -6.2691
    -6.2373  -6.1375  -5.0904  -5.0828  -4.4022  -4.2397  -4.0194  -3.7082
    -3.3370  -3.1901  -3.1698  -3.1419  -2.9391  -2.3708  -1.9388  -1.8320
    -1.6713  -1.6597  -1.1320  -1.1247  -1.1123  -1.0846  -0.5298  -0.4995
    -0.4466  -0.2890   0.0597   0.1252   0.1687

          k = 0.4000 0.0000 0.0000 (270436 PWs)   bands (ev):

   -59.7874 -59.7748 -59.7322 -59.7317 -59.7315 -59.7310 -59.7079 -59.6952
   -35.1235 -35.1235 -35.0621 -35.0620 -34.9830 -34.9080 -34.8909 -34.8564
   -34.8031 -34.7760 -34.7099 -34.7094 -34.7093 -34.7088 -34.6949 -34.6725
   -34.6690 -34.6330 -34.5462 -34.5459 -34.4800 -34.4799 -34.4234 -34.3344
   -17.9671 -17.8748 -17.6425 -17.6421 -17.4777 -17.4777 -17.4482 -17.4481
   -10.7207 -10.6874 -10.6166 -10.6160 -10.3147 -10.3140  -9.8414  -9.5055
    -8.7750  -8.3449  -8.1971  -8.0371  -7.9259  -7.9240  -7.9235  -7.8634
    -7.6939  -7.6935  -7.3362  -7.2930  -7.2058  -7.2037  -7.2030  -7.1109
    -7.1102  -7.0319  -6.7084  -6.5396  -6.2618  -6.2616  -6.2072  -6.2070
    -5.8337  -5.3409  -5.1754  -5.1748  -4.8987  -4.8982  -3.7273  -3.7268
    -3.2215  -3.2210  -3.1993  -3.1772  -2.6566  -2.5890  -2.3050  -1.5604
    -1.4771  -1.4078  -1.3000  -1.2999  -1.1230  -1.1227  -0.8807  -0.6655
    -0.4877  -0.4875  -0.4467  -0.4465  -0.3767

          k = 0.4000 0.2802 0.0000 (270383 PWs)   bands (ev):

   -59.7842 -59.7723 -59.7468 -59.7429 -59.7222 -59.7183 -59.7086 -59.6965
   -35.1376 -35.0904 -35.0619 -35.0049 -34.9919 -34.9688 -34.8649 -34.8022
   -34.7971 -34.7654 -34.7336 -34.7332 -34.7272 -34.6959 -34.6902 -34.6895
   -34.6802 -34.6554 -34.6389 -34.5502 -34.4608 -34.4249 -34.4066 -34.3360
   -17.9234 -17.8355 -17.6183 -17.6171 -17.5497 -17.5064 -17.4626 -17.4437
   -10.7294 -10.7178 -10.6758 -10.4712 -10.4514 -10.1145  -9.8964  -9.5560
    -8.7317  -8.3079  -8.2308  -8.0814  -7.9561  -7.9330  -7.9153  -7.8692
    -7.6214  -7.4773  -7.4455  -7.3137  -7.2242  -7.2176  -7.1612  -7.0925
    -7.0623  -6.9892  -6.7117  -6.5330  -6.4428  -6.3940  -6.3463  -6.3063
    -5.8901  -5.5677  -5.4330  -5.2360  -4.6372  -4.4403  -3.9222  -3.4101
    -3.3688  -3.3502  -3.0207  -2.8439  -2.8170  -2.5981  -2.4423  -2.2305
    -1.7620  -1.4475  -1.1624  -0.8960  -0.8816  -0.7718  -0.6871  -0.6834
    -0.5707  -0.3559  -0.2587  -0.1759  -0.1219

          k = 0.4000 0.5605 0.0000 (270429 PWs)   bands (ev):

   -59.7753 -59.7651 -59.7621 -59.7547 -59.7153 -59.7109 -59.7078 -59.7007
   -35.1075 -35.0803 -35.0458 -35.0456 -34.9610 -34.8893 -34.8408 -34.8073
   -34.7804 -34.7760 -34.7680 -34.7590 -34.7475 -34.7283 -34.7068 -34.6877
   -34.6836 -34.6765 -34.6674 -34.6281 -34.3936 -34.3923 -34.3873 -34.3518
   -17.8100 -17.7341 -17.6702 -17.6106 -17.5595 -17.5547 -17.4969 -17.4862
   -10.7550 -10.7484 -10.6411 -10.5774 -10.2471 -10.0454  -9.8961  -9.6964
    -8.6268  -8.4698  -8.2398  -8.1263  -7.9066  -7.7692  -7.7568  -7.7083
    -7.5759  -7.5374  -7.4720  -7.3352  -7.2543  -7.1995  -7.1447  -7.1380
    -6.9976  -6.9003  -6.7168  -6.7070  -6.6850  -6.6198  -6.5119  -6.4559
    -5.9414  -5.8333  -5.5288  -5.4577  -3.9668  -3.9151  -3.8232  -3.6861
    -3.2948  -3.2646  -3.1758  -2.9463  -2.9123  -2.7987  -2.4338  -2.2580
    -1.7655  -1.3576  -1.3422  -0.9463  -0.9392  -0.9311  -0.7139  -0.6832
    -0.1945   0.0241   0.1347   0.1365   0.3903

          k =-0.2000 0.2802 0.0000 (270322 PWs)   bands (ev):

   -59.7918 -59.7572 -59.7493 -59.7379 -59.7270 -59.7238 -59.7158 -59.6888
   -35.1598 -35.1190 -35.0302 -35.0242 -34.9276 -34.9176 -34.9146 -34.8113
   -34.7923 -34.7642 -34.7371 -34.7263 -34.7197 -34.7067 -34.7033 -34.6883
   -34.6865 -34.6663 -34.6339 -34.5040 -34.4948 -34.4773 -34.4123 -34.2904
   -17.9876 -17.7465 -17.6332 -17.6248 -17.5823 -17.4791 -17.4656 -17.4329
   -10.8602 -10.7182 -10.6771 -10.5662 -10.2326 -10.2004  -9.8006  -9.2829
    -9.0731  -8.5183  -8.2276  -7.9983  -7.9035  -7.8278  -7.7617  -7.7368
    -7.6777  -7.5427  -7.4349  -7.4045  -7.2766  -7.1947  -7.1652  -7.1190
    -7.0016  -6.9568  -6.9356  -6.4246  -6.4091  -6.3830  -6.2471  -6.1938
    -6.1324  -5.8623  -4.9401  -4.8892  -4.8070  -4.3928  -4.2294  -3.9039
    -3.7662  -3.3700  -3.0669  -2.9919  -2.4516  -2.3714  -1.7841  -1.7770
    -1.6158  -1.3623  -1.2780  -1.2158  -1.1049  -1.0694  -0.6832  -0.6041
    -0.5021  -0.4964  -0.0500   0.0048   0.0456

          k =-0.2000 0.5605 0.0000 (270421 PWs)   bands (ev):

   -59.7818 -59.7668 -59.7523 -59.7453 -59.7246 -59.7238 -59.7031 -59.6941
   -35.1071 -35.0304 -35.0282 -35.0204 -35.0191 -34.9103 -34.8942 -34.8304
   -34.8256 -34.7921 -34.7659 -34.7477 -34.7333 -34.7292 -34.7036 -34.7019
   -34.6692 -34.6565 -34.6095 -34.5369 -34.4437 -34.4147 -34.4074 -34.3344
   -17.8656 -17.7142 -17.6578 -17.5679 -17.5645 -17.5516 -17.5087 -17.4869
   -10.8232 -10.7474 -10.5525 -10.4842 -10.3725 -10.3599  -9.5894  -9.4066
    -8.9571  -8.7821  -7.9912  -7.9483  -7.8852  -7.8167  -7.8139  -7.7005
    -7.5392  -7.4242  -7.4043  -7.3952  -7.3348  -7.1690  -7.0964  -7.0691
    -7.0032  -6.9376  -6.8642  -6.8213  -6.7694  -6.5175  -6.3576  -6.2691
    -6.2373  -6.1375  -5.0904  -5.0828  -4.4022  -4.2397  -4.0194  -3.7082
    -3.3370  -3.1901  -3.1698  -3.1419  -2.9391  -2.3708  -1.9388  -1.8320
    -1.6713  -1.6597  -1.1320  -1.1247  -1.1123  -1.0846  -0.5298  -0.4995
    -0.4466  -0.2890   0.0597   0.1256   0.1677

          k =-0.4000 0.2802 0.0000 (270383 PWs)   bands (ev):

   -59.7842 -59.7723 -59.7468 -59.7429 -59.7222 -59.7183 -59.7086 -59.6965
   -35.1376 -35.0904 -35.0619 -35.0049 -34.9919 -34.9688 -34.8649 -34.8022
   -34.7971 -34.7654 -34.7336 -34.7332 -34.7272 -34.6959 -34.6902 -34.6895
   -34.6802 -34.6554 -34.6389 -34.5502 -34.4608 -34.4249 -34.4066 -34.3360
   -17.9234 -17.8355 -17.6183 -17.6171 -17.5497 -17.5064 -17.4626 -17.4437
   -10.7294 -10.7179 -10.6758 -10.4711 -10.4514 -10.1145  -9.8964  -9.5560
    -8.7317  -8.3079  -8.2308  -8.0814  -7.9561  -7.9330  -7.9153  -7.8692
    -7.6214  -7.4773  -7.4455  -7.3137  -7.2242  -7.2176  -7.1612  -7.0925
    -7.0623  -6.9892  -6.7117  -6.5330  -6.4428  -6.3940  -6.3463  -6.3064
    -5.8901  -5.5677  -5.4330  -5.2360  -4.6372  -4.4403  -3.9222  -3.4101
    -3.3688  -3.3502  -3.0207  -2.8439  -2.8170  -2.5981  -2.4423  -2.2305
    -1.7620  -1.4475  -1.1624  -0.8960  -0.8815  -0.7718  -0.6871  -0.6834
    -0.5707  -0.3559  -0.2586  -0.1759  -0.1219

          k =-0.4000 0.5605 0.0000 (270429 PWs)   bands (ev):

   -59.7753 -59.7651 -59.7621 -59.7547 -59.7153 -59.7109 -59.7078 -59.7007
   -35.1075 -35.0803 -35.0458 -35.0456 -34.9610 -34.8893 -34.8408 -34.8073
   -34.7804 -34.7760 -34.7680 -34.7590 -34.7475 -34.7283 -34.7068 -34.6877
   -34.6836 -34.6765 -34.6674 -34.6281 -34.3936 -34.3923 -34.3873 -34.3518
   -17.8100 -17.7341 -17.6702 -17.6106 -17.5595 -17.5547 -17.4969 -17.4862
   -10.7550 -10.7484 -10.6411 -10.5773 -10.2470 -10.0454  -9.8961  -9.6964
    -8.6268  -8.4698  -8.2398  -8.1263  -7.9066  -7.7692  -7.7568  -7.7083
    -7.5759  -7.5375  -7.4720  -7.3352  -7.2543  -7.1995  -7.1447  -7.1380
    -6.9976  -6.9003  -6.7168  -6.7070  -6.6850  -6.6198  -6.5119  -6.4559
    -5.9414  -5.8334  -5.5288  -5.4577  -3.9668  -3.9151  -3.8232  -3.6861
    -3.2948  -3.2646  -3.1758  -2.9463  -2.9124  -2.7987  -2.4338  -2.2580
    -1.7655  -1.3576  -1.3422  -0.9463  -0.9392  -0.9311  -0.7139  -0.6832
    -0.1945   0.0241   0.1347   0.1365   0.3898

     the Fermi energy is    -2.8941 ev

!    total energy              =   -1095.32086857 Ry
     estimated scf accuracy    <          4.1E-09 Ry
     smearing contrib. (-TS)   =      -0.00682229 Ry
     internal energy E=F+TS    =   -1095.31404628 Ry

     The total energy is F=E-TS. E is the sum of the following terms:
     one-electron contribution =  -11117.00811634 Ry
     hartree contribution      =    5536.09502317 Ry
     xc contribution           =    -164.77803946 Ry
     ewald contribution        =    4650.37708635 Ry

     convergence has been achieved in  11 iterations

     Forces acting on atoms (cartesian axes, Ry/au):

     atom    1 type  1   force =     0.00003121   -0.00000437    0.00099455
     atom    2 type  1   force =    -0.00001572   -0.00002383    0.00096932
     atom    3 type  1   force =    -0.00002065   -0.00007674   -0.00091731
     atom    4 type  1   force =     0.00000143   -0.00006589   -0.00093925
     atom    5 type  1   force =     0.00001691    0.00004855    0.00094705
     atom    6 type  1   force =     0.00000186    0.00008184    0.00091886
     atom    7 type  1   force =    -0.00000254    0.00003310   -0.00096150
     atom    8 type  1   force =    -0.00002018    0.00001364   -0.00098648
     atom    9 type  2   force =    -0.00172151   -0.00001402   -0.00043464
     atom   10 type  2   force =     0.00173921   -0.00004869   -0.00031864
     atom   11 type  2   force =    -0.00170640   -0.00007210   -0.00034781
     atom   12 type  2   force =     0.00171567   -0.00001285   -0.00040892
     atom   13 type  2   force =     0.00173264    0.00001020    0.00039034
     atom   14 type  2   force =    -0.00170578    0.00005384    0.00035461
     atom   15 type  2   force =     0.00167533    0.00004909    0.00037596
     atom   16 type  2   force =    -0.00169280   -0.00002594   -0.00045036
     atom   17 type  2   force =     0.00172121   -0.00004174   -0.00032983
     atom   18 type  2   force =    -0.00170085   -0.00006621   -0.00033951
     atom   19 type  2   force =     0.00169905   -0.00002432   -0.00040875
     atom   20 type  2   force =    -0.00172192    0.00003503    0.00039278
     atom   21 type  2   force =     0.00169181    0.00001541    0.00038835
     atom   22 type  2   force =    -0.00167662    0.00005765    0.00034817
     atom   23 type  2   force =     0.00164228    0.00004677    0.00037113
     atom   24 type  2   force =    -0.00168366    0.00003159    0.00039188

     Total force =     0.007483     Total SCF correction =     0.000100
     Energy error            =      2.4E-05 Ry
     Gradient error          =      1.7E-03 Ry/Bohr

     number of scf cycles    =   2
     number of bfgs steps    =   1

     energy             old  =   -1095.3208446069 Ry
     energy             new  =   -1095.3208685723 Ry

     CASE: energy            _new < energy            _old

     new trust radius        =       0.0009669533 bohr
     new conv_thr            =       0.0000000002 Ry


ATOMIC_POSITIONS (angstrom)
Nb            0.0365982875        1.7799315572        1.2412254889
Nb            4.9567322882        1.7799319678        1.2425053481
Nb            2.4964613750        3.5358744385        1.0725244474
Nb            7.4168729396        3.5359215323        1.0728372869
Nb            0.0365749968        5.2914194397        1.2413566718
Nb            4.9567604162        5.2914651491        1.2426445665
Nb            2.4964826557        7.0474011262        1.0726608073
Nb            7.4168616359        7.0473822930        1.0729547344
C             1.8151528886        1.7803351282        2.3089472547
C             3.1772914686        1.7802783470        2.3091920575
C             6.7359748442        1.7803121785        2.3094821458
C             8.0981478406        1.7803069815        2.3091278693
C             0.7176701843        3.5356252755        0.0047840545
C             4.2756616533        3.5356611289        0.0058952786
C             5.6378267477        3.5356962303        0.0059554832
C             1.8151556162        5.2917260902        2.3090556334
C             3.1772774538        5.2916422160        2.3092953045
C             6.7359970694        5.2916912708        2.3095759630
C             8.0981603861        5.2917085164        2.3092330886
C             9.1955704191        3.5356171388        0.0048904956
C             0.7176925645        7.0469984409        0.0048764100
C             4.2756626426        7.0470265833        0.0059792531
C             5.6378442588        7.0470604725        0.0060284794
C             9.1955738033        7.0469907654        0.0049730131



     Writing output data file /home/fernando/serse/temp/NB.save/
     NEW-OLD atomic charge density approx. for the potential

     negative rho (up, down):  4.745E-07 0.000E+00

     total cpu time spent up to now is     3446.9 secs

     Self-consistent Calculation

     iteration #  1     ecut=   110.00 Ry     beta= 0.70
     Davidson diagonalization with overlap
     ethr =  1.00E-06,  avg # of iterations =  2.0

     Threshold (ethr) on eigenvalues was too large:
     Diagonalizing with lowered threshold

     Davidson diagonalization with overlap
     ethr =  9.44E-08,  avg # of iterations =  2.2

     total cpu time spent up to now is     3559.2 secs

     total energy              =   -1095.32082294 Ry
     estimated scf accuracy    <       0.00019152 Ry

     iteration #  2     ecut=   110.00 Ry     beta= 0.70
     Davidson diagonalization with overlap
     ethr =  1.14E-07,  avg # of iterations =  2.8

     total cpu time spent up to now is     3625.8 secs

     total energy              =   -1095.32086080 Ry
     estimated scf accuracy    <       0.00007511 Ry

     iteration #  3     ecut=   110.00 Ry     beta= 0.70
     Davidson diagonalization with overlap
     ethr =  4.47E-08,  avg # of iterations =  5.5

     total cpu time spent up to now is     3687.0 secs

     total energy              =   -1095.32084386 Ry
     estimated scf accuracy    <       0.00044387 Ry

     iteration #  4     ecut=   110.00 Ry     beta= 0.70
     Davidson diagonalization with overlap
     ethr =  4.47E-08,  avg # of iterations =  5.8

     total cpu time spent up to now is     3743.8 secs

     total energy              =   -1095.32088194 Ry
     estimated scf accuracy    <       0.00003032 Ry

     iteration #  5     ecut=   110.00 Ry     beta= 0.70
     Davidson diagonalization with overlap
     ethr =  1.80E-08,  avg # of iterations =  2.4

     total cpu time spent up to now is     3793.5 secs

     total energy              =   -1095.32088567 Ry
     estimated scf accuracy    <       0.00000273 Ry

     iteration #  6     ecut=   110.00 Ry     beta= 0.70
     Davidson diagonalization with overlap
     ethr =  1.62E-09,  avg # of iterations =  6.0

     total cpu time spent up to now is     3858.2 secs

     total energy              =   -1095.32088659 Ry
     estimated scf accuracy    <       0.00000140 Ry

     iteration #  7     ecut=   110.00 Ry     beta= 0.70
     Davidson diagonalization with overlap
     ethr =  8.32E-10,  avg # of iterations =  2.6

     total cpu time spent up to now is     3908.4 secs

     total energy              =   -1095.32088671 Ry
     estimated scf accuracy    <       0.00000033 Ry

     iteration #  8     ecut=   110.00 Ry     beta= 0.70
     Davidson diagonalization with overlap
     ethr =  1.95E-10,  avg # of iterations =  5.9

     total cpu time spent up to now is     3974.6 secs

     total energy              =   -1095.32088673 Ry
     estimated scf accuracy    <       0.00000073 Ry

     iteration #  9     ecut=   110.00 Ry     beta= 0.70
     Davidson diagonalization with overlap
     ethr =  1.95E-10,  avg # of iterations =  2.3

     total cpu time spent up to now is     4023.9 secs

     total energy              =   -1095.32088678 Ry
     estimated scf accuracy    <       0.00000005 Ry

     iteration # 10     ecut=   110.00 Ry     beta= 0.70
     Davidson diagonalization with overlap
     ethr =  2.68E-11,  avg # of iterations =  6.0

     total cpu time spent up to now is     4083.8 secs

     total energy              =   -1095.32088679 Ry
     estimated scf accuracy    <       0.00000001 Ry

     iteration # 11     ecut=   110.00 Ry     beta= 0.70
     Davidson diagonalization with overlap
     ethr =  7.15E-12,  avg # of iterations =  4.6

     total cpu time spent up to now is     4142.3 secs

     total energy              =   -1095.32088679 Ry
     estimated scf accuracy    <          5.0E-09 Ry

     iteration # 12     ecut=   110.00 Ry     beta= 0.70
     Davidson diagonalization with overlap
     ethr =  2.99E-12,  avg # of iterations =  2.0

     total cpu time spent up to now is     4194.1 secs

     total energy              =   -1095.32088679 Ry
     estimated scf accuracy    <          4.7E-10 Ry

     iteration # 13     ecut=   110.00 Ry     beta= 0.70
     Davidson diagonalization with overlap
     ethr =  2.77E-13,  avg # of iterations =  5.8

     total cpu time spent up to now is     4264.5 secs

     total energy              =   -1095.32088679 Ry
     estimated scf accuracy    <          2.6E-10 Ry

     iteration # 14     ecut=   110.00 Ry     beta= 0.70
     Davidson diagonalization with overlap
     ethr =  1.54E-13,  avg # of iterations =  5.2

     total cpu time spent up to now is     4323.1 secs

     total energy              =   -1095.32088679 Ry
     estimated scf accuracy    <          5.1E-10 Ry

     iteration # 15     ecut=   110.00 Ry     beta= 0.70
     Davidson diagonalization with overlap
     ethr =  1.54E-13,  avg # of iterations =  2.7

     total cpu time spent up to now is     4372.3 secs

     End of self-consistent calculation

          k = 0.0000 0.0000 0.0000 (270233 PWs)   bands (ev):

   -59.7983 -59.7416 -59.7416 -59.7324 -59.7319 -59.7317 -59.7311 -59.6844
   -35.1800 -35.1800 -35.0500 -34.9656 -34.9656 -34.9206 -34.8240 -34.7642
   -34.7642 -34.7636 -34.7636 -34.7101 -34.7098 -34.7093 -34.7089 -34.6538
   -34.6486 -34.6482 -34.6430 -34.6430 -34.6017 -34.4189 -34.4189 -34.2564
   -18.0539 -17.6997 -17.6997 -17.6447 -17.5036 -17.5036 -17.4075 -17.4074
   -10.9055 -10.9054 -10.5434 -10.4665 -10.4665  -9.8708  -9.8699  -9.2562
    -9.1317  -8.3954  -8.2920  -8.2916  -7.9484  -7.7907  -7.7906  -7.5890
    -7.5889  -7.4642  -7.4642  -7.3167  -7.3160  -7.2557  -7.2102  -7.2102
    -7.0815  -7.0814  -6.8636  -6.3894  -6.2681  -6.1729  -6.1729  -5.9877
    -5.9876  -5.5786  -5.5778  -4.5288  -4.5288  -4.3669  -4.3669  -3.9686
    -3.9685  -3.7573  -3.7572  -2.6023  -2.6021  -1.8078  -1.5116  -1.4609
    -1.3137  -1.3135  -1.2974  -1.2973  -1.1246  -1.1246  -0.9022  -0.9016
    -0.3720  -0.2043  -0.2026  -0.2025  -0.1526

          k = 0.0000 0.2802 0.0000 (270322 PWs)   bands (ev):

   -59.7946 -59.7504 -59.7407 -59.7407 -59.7327 -59.7326 -59.7151 -59.6863
   -35.1535 -35.1535 -35.0302 -34.9950 -34.9333 -34.8991 -34.8567 -34.8567
   -34.8161 -34.7717 -34.7386 -34.7351 -34.7351 -34.7116 -34.7116 -34.6854
   -34.6599 -34.6251 -34.5925 -34.5925 -34.5260 -34.4303 -34.4303 -34.2753
   -18.0056 -17.6692 -17.6692 -17.6215 -17.5884 -17.4793 -17.4327 -17.4327
   -10.8652 -10.8651 -10.5098 -10.5097 -10.5064 -10.0686  -9.6629  -9.2121
    -9.1723  -8.6546  -8.2916  -8.0068  -7.9339  -7.6749  -7.6749  -7.6018
    -7.6017  -7.5754  -7.4964  -7.4963  -7.1832  -7.1816  -7.1816  -7.1032
    -7.1005  -7.1004  -6.9146  -6.3647  -6.3647  -6.3637  -6.3035  -6.1266
    -6.0546  -6.0491  -4.8870  -4.6997  -4.6996  -4.3685  -4.3684  -4.0423
    -4.0421  -3.3597  -3.3597  -3.0027  -2.2220  -2.1509  -1.7362  -1.4528
    -1.4037  -1.2869  -1.2868  -1.1591  -1.1590  -1.1388  -0.7382  -0.7035
    -0.5938  -0.5896  -0.4135  -0.0948   0.0689

          k = 0.0000 0.5605 0.0000 (270380 PWs)   bands (ev):

   -59.7842 -59.7686 -59.7382 -59.7382 -59.7351 -59.7351 -59.7016 -59.6920
   -35.0796 -35.0796 -34.9894 -34.9734 -34.9734 -34.9728 -34.9624 -34.8836
   -34.8067 -34.7959 -34.7687 -34.7258 -34.7258 -34.7178 -34.7178 -34.7122
   -34.6668 -34.6526 -34.5199 -34.5199 -34.4642 -34.4642 -34.4165 -34.3303
   -17.8802 -17.7245 -17.5918 -17.5918 -17.5653 -17.5071 -17.5014 -17.5014
   -10.7579 -10.7579 -10.6220 -10.6219 -10.4024 -10.2499  -9.4605  -9.2881
    -9.0980  -8.9237  -8.0267  -8.0159  -7.8513  -7.8032  -7.6081  -7.6080
    -7.5620  -7.5620  -7.3463  -7.3462  -7.1513  -7.1438  -7.1438  -7.1259
    -7.1259  -7.0371  -6.8137  -6.8137  -6.7842  -6.4280  -6.3530  -6.3009
    -6.2987  -6.1938  -4.7730  -4.7729  -4.6743  -4.6742  -4.0302  -3.5658
    -3.5656  -3.2323  -3.2321  -3.0894  -2.9535  -2.4166  -1.7059  -1.3601
    -1.2871  -1.2129  -1.2127  -1.2127  -1.1560  -1.1559  -1.0705  -1.0549
    -0.3342  -0.3073  -0.1383   0.0028   0.3754

          k = 0.2000 0.0000 0.0000 (270326 PWs)   bands (ev):

   -59.7955 -59.7592 -59.7324 -59.7319 -59.7317 -59.7311 -59.7240 -59.6872
   -35.1654 -35.1654 -35.0330 -34.9975 -34.9975 -34.9130 -34.8251 -34.8188
   -34.8126 -34.7293 -34.7250 -34.7141 -34.7101 -34.7098 -34.7093 -34.7090
   -34.6586 -34.6152 -34.6149 -34.6098 -34.5322 -34.4350 -34.4350 -34.2767
   -18.0290 -17.7748 -17.6539 -17.6415 -17.4948 -17.4948 -17.4171 -17.4170
   -10.8304 -10.8301 -10.6527 -10.5982 -10.1832 -10.0133 -10.0125  -9.2418
    -9.1162  -8.3324  -8.1699  -8.1695  -7.9452  -7.9416  -7.8813  -7.7479
    -7.5292  -7.5289  -7.3991  -7.3600  -7.2855  -7.2848  -7.2647  -7.0755
    -7.0750  -6.9367  -6.9070  -6.4291  -6.2174  -6.2174  -6.1558  -6.0797
    -6.0797  -5.4407  -5.4401  -4.7099  -4.6659  -4.6656  -4.1521  -4.1519
    -3.6152  -3.5953  -3.1531  -2.7791  -2.7788  -2.1782  -1.9064  -1.4789
    -1.3852  -1.3850  -1.0912  -1.0909  -1.0903  -1.0024  -0.9073  -0.7160
    -0.6874  -0.6869  -0.4674  -0.3165  -0.3162

          k = 0.2000 0.2802 0.0000 (270322 PWs)   bands (ev):

   -59.7920 -59.7574 -59.7495 -59.7381 -59.7272 -59.7239 -59.7160 -59.6890
   -35.1600 -35.1192 -35.0302 -35.0248 -34.9276 -34.9180 -34.9148 -34.8115
   -34.7926 -34.7644 -34.7373 -34.7269 -34.7199 -34.7068 -34.7034 -34.6887
   -34.6867 -34.6665 -34.6339 -34.5047 -34.4953 -34.4778 -34.4129 -34.2911
   -17.9820 -17.7401 -17.6265 -17.6182 -17.5763 -17.4728 -17.4591 -17.4264
   -10.8631 -10.7211 -10.6805 -10.5690 -10.2359 -10.2027  -9.8027  -9.2853
    -9.0711  -8.5172  -8.2251  -7.9956  -7.9006  -7.8265  -7.7588  -7.7339
    -7.6761  -7.5406  -7.4324  -7.4014  -7.2768  -7.1936  -7.1621  -7.1179
    -7.0012  -6.9526  -6.9358  -6.4226  -6.4093  -6.3812  -6.2473  -6.1963
    -6.1322  -5.8647  -4.9422  -4.8908  -4.8112  -4.3948  -4.2313  -3.9065
    -3.7675  -3.3730  -3.0658  -2.9944  -2.4561  -2.3696  -1.7844  -1.7774
    -1.6168  -1.3623  -1.2796  -1.2159  -1.1046  -1.0702  -0.6839  -0.6037
    -0.5025  -0.4966  -0.0495   0.0015   0.0062

          k = 0.2000 0.5605 0.0000 (270421 PWs)   bands (ev):

   -59.7819 -59.7670 -59.7524 -59.7455 -59.7248 -59.7240 -59.7033 -59.6942
   -35.1074 -35.0306 -35.0284 -35.0207 -35.0195 -34.9105 -34.8946 -34.8305
   -34.8262 -34.7923 -34.7661 -34.7479 -34.7335 -34.7293 -34.7038 -34.7021
   -34.6694 -34.6567 -34.6100 -34.5374 -34.4442 -34.4152 -34.4081 -34.3351
   -17.8598 -17.7083 -17.6514 -17.5614 -17.5579 -17.5452 -17.5023 -17.4803
   -10.8262 -10.7506 -10.5556 -10.4868 -10.3757 -10.3623  -9.5917  -9.4090
    -8.9554  -8.7807  -7.9889  -7.9460  -7.8834  -7.8146  -7.8124  -7.6988
    -7.5361  -7.4207  -7.4014  -7.3925  -7.3328  -7.1653  -7.0961  -7.0653
    -7.0005  -6.9381  -6.8644  -6.8202  -6.7681  -6.5171  -6.3577  -6.2691
    -6.2400  -6.1400  -5.0923  -5.0845  -4.4042  -4.2418  -4.0238  -3.7104
    -3.3387  -3.1926  -3.1742  -3.1445  -2.9391  -2.3717  -1.9369  -1.8330
    -1.6702  -1.6609  -1.1324  -1.1256  -1.1135  -1.0856  -0.5304  -0.5006
    -0.4485  -0.2896   0.0605   0.1235   0.1683

          k = 0.4000 0.0000 0.0000 (270436 PWs)   bands (ev):

   -59.7875 -59.7750 -59.7324 -59.7319 -59.7317 -59.7311 -59.7081 -59.6954
   -35.1237 -35.1237 -35.0622 -35.0622 -34.9837 -34.9087 -34.8910 -34.8564
   -34.8033 -34.7762 -34.7101 -34.7096 -34.7095 -34.7090 -34.6951 -34.6727
   -34.6691 -34.6330 -34.5467 -34.5465 -34.4805 -34.4804 -34.4241 -34.3351
   -17.9613 -17.8687 -17.6358 -17.6355 -17.4714 -17.4714 -17.4418 -17.4417
   -10.7239 -10.6903 -10.6192 -10.6187 -10.3171 -10.3164  -9.8444  -9.5082
    -8.7728  -8.3423  -8.1945  -8.0343  -7.9231  -7.9228  -7.9224  -7.8606
    -7.6925  -7.6921  -7.3361  -7.2924  -7.2021  -7.2014  -7.2007  -7.1092
    -7.1085  -7.0279  -6.7088  -6.5401  -6.2609  -6.2607  -6.2069  -6.2068
    -5.8358  -5.3426  -5.1782  -5.1777  -4.9011  -4.9007  -3.7278  -3.7274
    -3.2210  -3.2206  -3.2016  -3.1811  -2.6609  -2.5907  -2.3063  -1.5602
    -1.4786  -1.4075  -1.2990  -1.2990  -1.1221  -1.1219  -0.8804  -0.6655
    -0.4883  -0.4881  -0.4468  -0.4466  -0.3781

          k = 0.4000 0.2802 0.0000 (270383 PWs)   bands (ev):

   -59.7844 -59.7724 -59.7470 -59.7430 -59.7223 -59.7184 -59.7088 -59.6967
   -35.1378 -35.0905 -35.0620 -35.0055 -34.9920 -34.9693 -34.8652 -34.8025
   -34.7973 -34.7656 -34.7338 -34.7334 -34.7274 -34.6961 -34.6903 -34.6897
   -34.6803 -34.6555 -34.6395 -34.5507 -34.4614 -34.4254 -34.4072 -34.3367
   -17.9175 -17.8294 -17.6116 -17.6105 -17.5436 -17.5001 -17.4562 -17.4372
   -10.7325 -10.7205 -10.6787 -10.4735 -10.4541 -10.1169  -9.8994  -9.5587
    -8.7297  -8.3056  -8.2298  -8.0787  -7.9534  -7.9319  -7.9125  -7.8666
    -7.6198  -7.4753  -7.4434  -7.3118  -7.2238  -7.2140  -7.1604  -7.0896
    -7.0584  -6.9870  -6.7121  -6.5334  -6.4425  -6.3931  -6.3460  -6.3065
    -5.8923  -5.5701  -5.4348  -5.2382  -4.6405  -4.4430  -3.9231  -3.4101
    -3.3720  -3.3507  -3.0230  -2.8433  -2.8211  -2.5999  -2.4437  -2.2312
    -1.7621  -1.4474  -1.1628  -0.8957  -0.8822  -0.7738  -0.6875  -0.6833
    -0.5707  -0.3549  -0.2592  -0.1747  -0.1221

          k = 0.4000 0.5605 0.0000 (270429 PWs)   bands (ev):

   -59.7754 -59.7652 -59.7623 -59.7548 -59.7154 -59.7111 -59.7080 -59.7008
   -35.1078 -35.0806 -35.0461 -35.0460 -34.9612 -34.8894 -34.8410 -34.8077
   -34.7805 -34.7762 -34.7682 -34.7592 -34.7477 -34.7288 -34.7072 -34.6879
   -34.6837 -34.6767 -34.6675 -34.6286 -34.3942 -34.3929 -34.3879 -34.3525
   -17.8040 -17.7280 -17.6642 -17.6043 -17.5529 -17.5480 -17.4905 -17.4796
   -10.7577 -10.7513 -10.6438 -10.5799 -10.2498 -10.0483  -9.8986  -9.6990
    -8.6253  -8.4687  -8.2382  -8.1251  -7.9041  -7.7666  -7.7541  -7.7060
    -7.5729  -7.5351  -7.4699  -7.3325  -7.2510  -7.1959  -7.1411  -7.1346
    -6.9970  -6.8994  -6.7174  -6.7063  -6.6860  -6.6193  -6.5123  -6.4564
    -5.9437  -5.8356  -5.5307  -5.4597  -3.9702  -3.9178  -3.8246  -3.6885
    -3.2955  -3.2686  -3.1780  -2.9471  -2.9130  -2.8005  -2.4335  -2.2587
    -1.7664  -1.3589  -1.3428  -0.9476  -0.9395  -0.9323  -0.7144  -0.6845
    -0.1945   0.0232   0.1330   0.1357   0.3896

          k =-0.2000 0.2802 0.0000 (270322 PWs)   bands (ev):

   -59.7920 -59.7574 -59.7495 -59.7381 -59.7272 -59.7239 -59.7160 -59.6890
   -35.1600 -35.1192 -35.0302 -35.0248 -34.9276 -34.9180 -34.9148 -34.8115
   -34.7926 -34.7644 -34.7373 -34.7269 -34.7199 -34.7068 -34.7034 -34.6887
   -34.6867 -34.6665 -34.6339 -34.5047 -34.4953 -34.4778 -34.4129 -34.2911
   -17.9820 -17.7401 -17.6265 -17.6182 -17.5763 -17.4728 -17.4591 -17.4264
   -10.8631 -10.7211 -10.6804 -10.5690 -10.2359 -10.2026  -9.8028  -9.2853
    -9.0711  -8.5172  -8.2251  -7.9956  -7.9006  -7.8265  -7.7588  -7.7339
    -7.6761  -7.5406  -7.4324  -7.4014  -7.2768  -7.1936  -7.1621  -7.1179
    -7.0011  -6.9526  -6.9358  -6.4226  -6.4093  -6.3812  -6.2472  -6.1963
    -6.1322  -5.8647  -4.9422  -4.8908  -4.8112  -4.3948  -4.2313  -3.9065
    -3.7676  -3.3729  -3.0658  -2.9945  -2.4561  -2.3696  -1.7844  -1.7774
    -1.6168  -1.3623  -1.2796  -1.2159  -1.1046  -1.0702  -0.6839  -0.6038
    -0.5025  -0.4966  -0.0495   0.0062   0.0440

          k =-0.2000 0.5605 0.0000 (270421 PWs)   bands (ev):

   -59.7819 -59.7670 -59.7524 -59.7455 -59.7248 -59.7240 -59.7033 -59.6942
   -35.1074 -35.0306 -35.0284 -35.0207 -35.0195 -34.9105 -34.8946 -34.8305
   -34.8262 -34.7923 -34.7661 -34.7479 -34.7335 -34.7293 -34.7038 -34.7021
   -34.6694 -34.6567 -34.6100 -34.5374 -34.4442 -34.4152 -34.4081 -34.3351
   -17.8598 -17.7083 -17.6514 -17.5614 -17.5579 -17.5452 -17.5023 -17.4803
   -10.8262 -10.7505 -10.5555 -10.4868 -10.3757 -10.3623  -9.5917  -9.4090
    -8.9554  -8.7807  -7.9889  -7.9460  -7.8834  -7.8146  -7.8124  -7.6988
    -7.5361  -7.4207  -7.4014  -7.3925  -7.3328  -7.1653  -7.0961  -7.0653
    -7.0005  -6.9381  -6.8644  -6.8202  -6.7681  -6.5171  -6.3577  -6.2691
    -6.2400  -6.1400  -5.0922  -5.0846  -4.4042  -4.2418  -4.0238  -3.7104
    -3.3387  -3.1926  -3.1742  -3.1445  -2.9391  -2.3717  -1.9369  -1.8330
    -1.6703  -1.6609  -1.1324  -1.1256  -1.1135  -1.0856  -0.5304  -0.5006
    -0.4485  -0.2896   0.0605   0.1237   0.1675

          k =-0.4000 0.2802 0.0000 (270383 PWs)   bands (ev):

   -59.7844 -59.7724 -59.7470 -59.7430 -59.7223 -59.7184 -59.7088 -59.6967
   -35.1378 -35.0905 -35.0620 -35.0055 -34.9920 -34.9693 -34.8652 -34.8025
   -34.7973 -34.7656 -34.7338 -34.7334 -34.7274 -34.6961 -34.6903 -34.6897
   -34.6803 -34.6555 -34.6395 -34.5507 -34.4614 -34.4254 -34.4072 -34.3367
   -17.9175 -17.8294 -17.6116 -17.6105 -17.5436 -17.5001 -17.4562 -17.4372
   -10.7325 -10.7205 -10.6787 -10.4735 -10.4541 -10.1169  -9.8994  -9.5587
    -8.7297  -8.3056  -8.2298  -8.0787  -7.9534  -7.9319  -7.9125  -7.8666
    -7.6198  -7.4753  -7.4434  -7.3118  -7.2238  -7.2140  -7.1604  -7.0896
    -7.0584  -6.9870  -6.7121  -6.5334  -6.4425  -6.3931  -6.3460  -6.3065
    -5.8923  -5.5701  -5.4348  -5.2382  -4.6405  -4.4430  -3.9231  -3.4101
    -3.3720  -3.3507  -3.0229  -2.8433  -2.8211  -2.5999  -2.4438  -2.2312
    -1.7621  -1.4474  -1.1628  -0.8957  -0.8822  -0.7738  -0.6875  -0.6833
    -0.5707  -0.3549  -0.2591  -0.1746  -0.1221

          k =-0.4000 0.5605 0.0000 (270429 PWs)   bands (ev):

   -59.7754 -59.7652 -59.7623 -59.7548 -59.7154 -59.7111 -59.7080 -59.7008
   -35.1078 -35.0806 -35.0461 -35.0460 -34.9612 -34.8894 -34.8410 -34.8077
   -34.7805 -34.7762 -34.7682 -34.7592 -34.7477 -34.7288 -34.7072 -34.6879
   -34.6837 -34.6767 -34.6675 -34.6286 -34.3942 -34.3929 -34.3879 -34.3525
   -17.8040 -17.7280 -17.6642 -17.6043 -17.5529 -17.5480 -17.4905 -17.4796
   -10.7577 -10.7513 -10.6438 -10.5798 -10.2498 -10.0483  -9.8986  -9.6990
    -8.6252  -8.4687  -8.2382  -8.1251  -7.9041  -7.7666  -7.7541  -7.7060
    -7.5729  -7.5351  -7.4699  -7.3325  -7.2510  -7.1959  -7.1411  -7.1346
    -6.9970  -6.8995  -6.7174  -6.7063  -6.6860  -6.6193  -6.5123  -6.4564
    -5.9437  -5.8356  -5.5308  -5.4597  -3.9702  -3.9178  -3.8246  -3.6885
    -3.2955  -3.2686  -3.1780  -2.9471  -2.9130  -2.8005  -2.4335  -2.2587
    -1.7663  -1.3590  -1.3428  -0.9476  -0.9395  -0.9323  -0.7144  -0.6845
    -0.1945   0.0232   0.1330   0.1357   0.3893

     the Fermi energy is    -2.8950 ev

!    total energy              =   -1095.32088679 Ry
     estimated scf accuracy    <          9.0E-11 Ry
     smearing contrib. (-TS)   =      -0.00681982 Ry
     internal energy E=F+TS    =   -1095.31406698 Ry

     The total energy is F=E-TS. E is the sum of the following terms:
     one-electron contribution =  -11117.05008349 Ry
     hartree contribution      =    5536.11552387 Ry
     xc contribution           =    -164.77360004 Ry
     ewald contribution        =    4650.39409267 Ry

     convergence has been achieved in  15 iterations

     Forces acting on atoms (cartesian axes, Ry/au):

     atom    1 type  1   force =     0.00000338    0.00003957    0.00048908
     atom    2 type  1   force =    -0.00001543    0.00007715    0.00047744
     atom    3 type  1   force =     0.00005218    0.00003478   -0.00046719
     atom    4 type  1   force =    -0.00004512   -0.00000684   -0.00048060
     atom    5 type  1   force =     0.00003441   -0.00000168    0.00046179
     atom    6 type  1   force =    -0.00004452   -0.00002237    0.00045330
     atom    7 type  1   force =     0.00003106   -0.00007792   -0.00050008
     atom    8 type  1   force =    -0.00002034   -0.00004592   -0.00051204
     atom    9 type  2   force =    -0.00008277   -0.00001639   -0.00035692
     atom   10 type  2   force =     0.00011753   -0.00004664   -0.00026673
     atom   11 type  2   force =    -0.00009215   -0.00006611   -0.00029246
     atom   12 type  2   force =     0.00008835   -0.00001444   -0.00033930
     atom   13 type  2   force =     0.00009755    0.00001068    0.00034517
     atom   14 type  2   force =    -0.00009396    0.00004669    0.00031357
     atom   15 type  2   force =     0.00006474    0.00004428    0.00033104
     atom   16 type  2   force =    -0.00006610   -0.00002219   -0.00037837
     atom   17 type  2   force =     0.00010516   -0.00003603   -0.00028485
     atom   18 type  2   force =    -0.00009304   -0.00005715   -0.00029339
     atom   19 type  2   force =     0.00007916   -0.00002166   -0.00034591
     atom   20 type  2   force =    -0.00008876    0.00003226    0.00034836
     atom   21 type  2   force =     0.00009355    0.00001889    0.00033809
[...]

     total cpu time spent up to now is     7076.3 secs

     End of self-consistent calculation

          k = 0.0000 0.0000 0.0000 (270233 PWs)   bands (ev):

   -59.7972 -59.7405 -59.7405 -59.7312 -59.7307 -59.7306 -59.7301 -59.6833
   -35.1792 -35.1792 -35.0497 -34.9646 -34.9646 -34.9196 -34.8230 -34.7636
   -34.7636 -34.7626 -34.7626 -34.7091 -34.7088 -34.7083 -34.7080 -34.6528
   -34.6481 -34.6480 -34.6423 -34.6423 -34.6007 -34.4183 -34.4183 -34.2561
   -18.0544 -17.6997 -17.6996 -17.6449 -17.5041 -17.5040 -17.4075 -17.4074
   -10.9074 -10.9074 -10.5429 -10.4685 -10.4685  -9.8693  -9.8688  -9.2574
    -9.1310  -8.3959  -8.2930  -8.2927  -7.9484  -7.7903  -7.7902  -7.5901
    -7.5900  -7.4653  -7.4652  -7.3183  -7.3179  -7.2560  -7.2106  -7.2105
    -7.0811  -7.0811  -6.8639  -6.3893  -6.2693  -6.1746  -6.1745  -5.9880
    -5.9879  -5.5825  -5.5821  -4.5271  -4.5270  -4.3663  -4.3662  -3.9670
    -3.9670  -3.7582  -3.7581  -2.5988  -2.5987  -1.8145  -1.5123  -1.4650
    -1.3133  -1.3132  -1.2966  -1.2966  -1.1231  -1.1231  -0.8965  -0.8961
    -0.3707  -0.2012  -0.2011  -0.1985  -0.1472

          k = 0.0000 0.2802 0.0000 (270322 PWs)   bands (ev):

   -59.7935 -59.7493 -59.7396 -59.7396 -59.7315 -59.7315 -59.7140 -59.6852
   -35.1528 -35.1528 -35.0298 -34.9939 -34.9323 -34.8981 -34.8560 -34.8560
   -34.8151 -34.7714 -34.7376 -34.7341 -34.7341 -34.7106 -34.7106 -34.6844
   -34.6590 -34.6240 -34.5918 -34.5918 -34.5256 -34.4297 -34.4297 -34.2749
   -18.0061 -17.6691 -17.6690 -17.6218 -17.5889 -17.4797 -17.4327 -17.4327
   -10.8671 -10.8671 -10.5118 -10.5117 -10.5057 -10.0673  -9.6617  -9.2133
    -9.1716  -8.6555  -8.2922  -8.0070  -7.9352  -7.6742  -7.6742  -7.6031
    -7.6030  -7.5772  -7.4974  -7.4973  -7.1842  -7.1821  -7.1821  -7.1035
    -7.0999  -7.0999  -6.9148  -6.3663  -6.3662  -6.3637  -6.3049  -6.1270
    -6.0581  -6.0494  -4.8915  -4.6984  -4.6984  -4.3677  -4.3677  -4.0412
    -4.0412  -3.3599  -3.3598  -3.0008  -2.2280  -2.1469  -1.7391  -1.4523
    -1.4033  -1.2861  -1.2861  -1.1580  -1.1579  -1.1333  -0.7365  -0.6982
    -0.5929  -0.5840  -0.4131  -0.0906   0.0703

          k = 0.0000 0.5605 0.0000 (270380 PWs)   bands (ev):

   -59.7830 -59.7675 -59.7371 -59.7371 -59.7340 -59.7340 -59.7005 -59.6909
   -35.0789 -35.0789 -34.9884 -34.9727 -34.9727 -34.9724 -34.9614 -34.8833
   -34.8057 -34.7949 -34.7677 -34.7249 -34.7248 -34.7168 -34.7168 -34.7113
   -34.6658 -34.6516 -34.5193 -34.5192 -34.4636 -34.4636 -34.4161 -34.3299
   -17.8808 -17.7251 -17.5918 -17.5917 -17.5656 -17.5075 -17.5015 -17.5014
   -10.7599 -10.7599 -10.6240 -10.6240 -10.4015 -10.2488  -9.4595  -9.2873
    -9.0990  -8.9245  -8.0275  -8.0166  -7.8527  -7.8046  -7.6089  -7.6088
    -7.5630  -7.5629  -7.3453  -7.3453  -7.1515  -7.1427  -7.1427  -7.1272
    -7.1271  -7.0373  -6.8153  -6.8153  -6.7845  -6.4284  -6.3550  -6.3037
    -6.2990  -6.1941  -4.7720  -4.7720  -4.6734  -4.6734  -4.0351  -3.5650
    -3.5650  -3.2320  -3.2320  -3.0948  -2.9530  -2.4174  -1.7021  -1.3569
    -1.2868  -1.2123  -1.2122  -1.2073  -1.1554  -1.1554  -1.0652  -1.0546
    -0.3352  -0.3020  -0.1334   0.0037   0.3762

          k = 0.2000 0.0000 0.0000 (270326 PWs)   bands (ev):

   -59.7944 -59.7581 -59.7312 -59.7307 -59.7306 -59.7301 -59.7229 -59.6861
   -35.1646 -35.1646 -35.0326 -34.9966 -34.9966 -34.9120 -34.8248 -34.8178
   -34.8116 -34.7283 -34.7242 -34.7131 -34.7091 -34.7087 -34.7083 -34.7080
   -34.6576 -34.6147 -34.6146 -34.6088 -34.5316 -34.4344 -34.4344 -34.2764
   -18.0295 -17.7747 -17.6538 -17.6417 -17.4953 -17.4952 -17.4172 -17.4171
   -10.8321 -10.8319 -10.6546 -10.5981 -10.1849 -10.0125 -10.0120  -9.2415
    -9.1168  -8.3327  -8.1704  -8.1702  -7.9454  -7.9396  -7.8816  -7.7489
    -7.5299  -7.5298  -7.4001  -7.3621  -7.2869  -7.2866  -7.2651  -7.0752
    -7.0749  -6.9363  -6.9073  -6.4291  -6.2192  -6.2192  -6.1568  -6.0809
    -6.0808  -5.4436  -5.4433  -4.7090  -4.6652  -4.6651  -4.1503  -4.1502
    -3.6158  -3.5966  -3.1510  -2.7756  -2.7754  -2.1835  -1.9070  -1.4781
    -1.3848  -1.3847  -1.0898  -1.0896  -1.0895  -1.0072  -0.9025  -0.7132
    -0.6824  -0.6821  -0.4662  -0.3151  -0.3149

          k = 0.2000 0.2802 0.0000 (270322 PWs)   bands (ev):

   -59.7908 -59.7563 -59.7484 -59.7370 -59.7261 -59.7228 -59.7148 -59.6878
   -35.1593 -35.1184 -35.0293 -35.0244 -34.9267 -34.9173 -34.9138 -34.8104
   -34.7918 -34.7635 -34.7363 -34.7265 -34.7189 -34.7058 -34.7024 -34.6879
   -34.6857 -34.6656 -34.6329 -34.5043 -34.4948 -34.4772 -34.4123 -34.2907
   -17.9825 -17.7401 -17.6264 -17.6185 -17.5768 -17.4732 -17.4592 -17.4264
   -10.8648 -10.7229 -10.6824 -10.5689 -10.2377 -10.2020  -9.8021  -9.2850
    -9.0718  -8.5177  -8.2254  -7.9959  -7.8993  -7.8273  -7.7591  -7.7345
    -7.6769  -7.5422  -7.4332  -7.4023  -7.2787  -7.1933  -7.1632  -7.1184
    -7.0007  -6.9529  -6.9355  -6.4243  -6.4094  -6.3830  -6.2488  -6.1975
    -6.1330  -5.8668  -4.9417  -4.8902  -4.8148  -4.3932  -4.2309  -3.9064
    -3.7659  -3.3732  -3.0636  -2.9940  -2.4611  -2.3659  -1.7842  -1.7766
    -1.6151  -1.3611  -1.2814  -1.2153  -1.1039  -1.0689  -0.6796  -0.6017
    -0.4990  -0.4960  -0.0476   0.0044   0.0071

          k = 0.2000 0.5605 0.0000 (270421 PWs)   bands (ev):

   -59.7808 -59.7659 -59.7513 -59.7444 -59.7237 -59.7228 -59.7021 -59.6931
   -35.1066 -35.0297 -35.0276 -35.0200 -35.0188 -34.9098 -34.8939 -34.8296
   -34.8257 -34.7913 -34.7651 -34.7470 -34.7325 -34.7284 -34.7028 -34.7011
   -34.6684 -34.6556 -34.6093 -34.5367 -34.4436 -34.4146 -34.4077 -34.3347
   -17.8603 -17.7088 -17.6514 -17.5617 -17.5579 -17.5452 -17.5026 -17.4803
   -10.8280 -10.7524 -10.5573 -10.4866 -10.3775 -10.3618  -9.5912  -9.4086
    -8.9559  -8.7812  -7.9896  -7.9465  -7.8835  -7.8159  -7.8129  -7.6997
    -7.5353  -7.4209  -7.4023  -7.3934  -7.3321  -7.1656  -7.0982  -7.0656
    -6.9988  -6.9380  -6.8667  -6.8208  -6.7700  -6.5182  -6.3581  -6.2697
    -6.2417  -6.1419  -5.0918  -5.0841  -4.4029  -4.2410  -4.0277  -3.7102
    -3.3375  -3.1926  -3.1784  -3.1440  -2.9382  -2.3714  -1.9334  -1.8319
    -1.6677  -1.6604  -1.1320  -1.1253  -1.1130  -1.0847  -0.5269  -0.5007
    -0.4459  -0.2866   0.0603   0.1279   0.1681

          k = 0.4000 0.0000 0.0000 (270436 PWs)   bands (ev):

   -59.7864 -59.7739 -59.7312 -59.7307 -59.7306 -59.7301 -59.7070 -59.6943
   -35.1229 -35.1229 -35.0614 -35.0613 -34.9834 -34.9084 -34.8900 -34.8554
   -34.8022 -34.7751 -34.7090 -34.7086 -34.7085 -34.7081 -34.6942 -34.6717
   -34.6681 -34.6321 -34.5462 -34.5461 -34.4800 -34.4799 -34.4236 -34.3347
   -17.9616 -17.8688 -17.6359 -17.6355 -17.4718 -17.4717 -17.4420 -17.4419
   -10.7254 -10.6911 -10.6203 -10.6200 -10.3172 -10.3169  -9.8456  -9.5086
    -8.7725  -8.3409  -8.1946  -8.0345  -7.9235  -7.9230  -7.9228  -7.8614
    -7.6928  -7.6926  -7.3378  -7.2933  -7.2029  -7.2024  -7.2020  -7.1094
    -7.1090  -7.0284  -6.7087  -6.5402  -6.2628  -6.2627  -6.2086  -6.2085
    -5.8362  -5.3425  -5.1799  -5.1796  -4.9016  -4.9014  -3.7252  -3.7250
    -3.2177  -3.2175  -3.2021  -3.1833  -2.6646  -2.5912  -2.3037  -1.5586
    -1.4757  -1.4044  -1.2989  -1.2988  -1.1215  -1.1214  -0.8795  -0.6643
    -0.4843  -0.4842  -0.4444  -0.4443  -0.3820

          k = 0.4000 0.2802 0.0000 (270383 PWs)   bands (ev):

   -59.7832 -59.7713 -59.7459 -59.7419 -59.7212 -59.7173 -59.7077 -59.6956
   -35.1370 -35.0897 -35.0612 -35.0050 -34.9912 -34.9687 -34.8644 -34.8018
   -34.7962 -34.7645 -34.7330 -34.7324 -34.7264 -34.6951 -34.6893 -34.6888
   -34.6793 -34.6545 -34.6389 -34.5501 -34.4609 -34.4249 -34.4067 -34.3363
   -17.9179 -17.8296 -17.6118 -17.6105 -17.5440 -17.5003 -17.4565 -17.4374
   -10.7340 -10.7217 -10.6795 -10.4739 -10.4553 -10.1173  -9.9006  -9.5591
    -8.7293  -8.3044  -8.2299  -8.0789  -7.9541  -7.9322  -7.9127  -7.8674
    -7.6201  -7.4757  -7.4446  -7.3122  -7.2253  -7.2148  -7.1613  -7.0904
    -7.0589  -6.9869  -6.7121  -6.5337  -6.4445  -6.3949  -6.3477  -6.3080
    -5.8929  -5.5716  -5.4348  -5.2387  -4.6424  -4.4436  -3.9209  -3.4075
    -3.3729  -3.3482  -3.0230  -2.8401  -2.8245  -2.5990  -2.4437  -2.2286
    -1.7625  -1.4477  -1.1606  -0.8949  -0.8805  -0.7754  -0.6853  -0.6825
    -0.5690  -0.3533  -0.2553  -0.1740  -0.1200

          k = 0.4000 0.5605 0.0000 (270429 PWs)   bands (ev):

   -59.7743 -59.7641 -59.7611 -59.7537 -59.7143 -59.7100 -59.7069 -59.6997
   -35.1070 -35.0798 -35.0454 -35.0453 -34.9603 -34.8885 -34.8402 -34.8071
   -34.7795 -34.7753 -34.7673 -34.7583 -34.7468 -34.7281 -34.7065 -34.6869
   -34.6827 -34.6756 -34.6665 -34.6280 -34.3937 -34.3924 -34.3874 -34.3520
   -17.8044 -17.7282 -17.6646 -17.6045 -17.5531 -17.5481 -17.4907 -17.4797
   -10.7590 -10.7527 -10.6444 -10.5803 -10.2511 -10.0495  -9.8990  -9.6995
    -8.6250  -8.4686  -8.2376  -8.1252  -7.9050  -7.7667  -7.7546  -7.7071
    -7.5730  -7.5354  -7.4700  -7.3329  -7.2517  -7.1965  -7.1416  -7.1343
    -6.9986  -6.9005  -6.7178  -6.7079  -6.6874  -6.6207  -6.5130  -6.4575
    -5.9447  -5.8369  -5.5310  -5.4602  -3.9723  -3.9176  -3.8238  -3.6881
    -3.2934  -3.2716  -3.1780  -2.9451  -2.9106  -2.7995  -2.4307  -2.2570
    -1.7674  -1.3609  -1.3436  -0.9481  -0.9391  -0.9316  -0.7142  -0.6833
    -0.1933   0.0264   0.1359   0.1382   0.3934

          k =-0.2000 0.2802 0.0000 (270322 PWs)   bands (ev):

   -59.7908 -59.7563 -59.7484 -59.7370 -59.7261 -59.7228 -59.7148 -59.6878
   -35.1593 -35.1184 -35.0293 -35.0244 -34.9267 -34.9173 -34.9138 -34.8104
   -34.7918 -34.7635 -34.7363 -34.7265 -34.7189 -34.7058 -34.7024 -34.6879
   -34.6857 -34.6656 -34.6329 -34.5043 -34.4948 -34.4772 -34.4123 -34.2907
   -17.9825 -17.7401 -17.6264 -17.6185 -17.5768 -17.4732 -17.4592 -17.4264
   -10.8648 -10.7229 -10.6824 -10.5689 -10.2377 -10.2020  -9.8021  -9.2850
    -9.0718  -8.5177  -8.2254  -7.9959  -7.8993  -7.8273  -7.7591  -7.7345
    -7.6769  -7.5422  -7.4333  -7.4023  -7.2787  -7.1933  -7.1632  -7.1184
    -7.0007  -6.9529  -6.9355  -6.4243  -6.4094  -6.3830  -6.2488  -6.1975
    -6.1330  -5.8668  -4.9417  -4.8902  -4.8148  -4.3932  -4.2309  -3.9063
    -3.7659  -3.3732  -3.0636  -2.9940  -2.4611  -2.3659  -1.7842  -1.7766
    -1.6151  -1.3611  -1.2815  -1.2153  -1.1039  -1.0689  -0.6796  -0.6017
    -0.4990  -0.4960  -0.0476   0.0044   0.0071

          k =-0.2000 0.5605 0.0000 (270421 PWs)   bands (ev):

   -59.7808 -59.7659 -59.7513 -59.7444 -59.7237 -59.7228 -59.7021 -59.6931
   -35.1066 -35.0297 -35.0276 -35.0200 -35.0188 -34.9098 -34.8939 -34.8296
   -34.8257 -34.7913 -34.7651 -34.7470 -34.7325 -34.7284 -34.7028 -34.7011
   -34.6684 -34.6556 -34.6093 -34.5367 -34.4436 -34.4147 -34.4077 -34.3347
   -17.8603 -17.7088 -17.6514 -17.5617 -17.5579 -17.5452 -17.5026 -17.4803
   -10.8280 -10.7524 -10.5573 -10.4866 -10.3775 -10.3618  -9.5912  -9.4086
    -8.9559  -8.7812  -7.9896  -7.9465  -7.8835  -7.8159  -7.8129  -7.6997
    -7.5353  -7.4209  -7.4023  -7.3934  -7.3321  -7.1656  -7.0982  -7.0656
    -6.9988  -6.9380  -6.8667  -6.8208  -6.7700  -6.5182  -6.3581  -6.2697
    -6.2417  -6.1419  -5.0918  -5.0841  -4.4029  -4.2410  -4.0277  -3.7102
    -3.3375  -3.1926  -3.1784  -3.1440  -2.9382  -2.3714  -1.9334  -1.8319
    -1.6677  -1.6605  -1.1320  -1.1253  -1.1130  -1.0847  -0.5269  -0.5007
    -0.4459  -0.2866   0.0603   0.1280   0.1676

          k =-0.4000 0.2802 0.0000 (270383 PWs)   bands (ev):

   -59.7832 -59.7713 -59.7459 -59.7419 -59.7212 -59.7173 -59.7077 -59.6956
   -35.1370 -35.0897 -35.0612 -35.0050 -34.9912 -34.9687 -34.8644 -34.8018
   -34.7962 -34.7645 -34.7330 -34.7324 -34.7264 -34.6951 -34.6893 -34.6888
   -34.6793 -34.6545 -34.6389 -34.5501 -34.4609 -34.4249 -34.4067 -34.3363
   -17.9179 -17.8296 -17.6118 -17.6105 -17.5440 -17.5003 -17.4565 -17.4374
   -10.7340 -10.7217 -10.6795 -10.4739 -10.4553 -10.1173  -9.9006  -9.5591
    -8.7293  -8.3044  -8.2299  -8.0789  -7.9541  -7.9322  -7.9127  -7.8674
    -7.6201  -7.4757  -7.4446  -7.3122  -7.2253  -7.2148  -7.1613  -7.0904
    -7.0589  -6.9869  -6.7121  -6.5337  -6.4445  -6.3949  -6.3477  -6.3080
    -5.8929  -5.5716  -5.4348  -5.2387  -4.6424  -4.4436  -3.9209  -3.4075
    -3.3729  -3.3482  -3.0230  -2.8401  -2.8245  -2.5990  -2.4437  -2.2286
    -1.7625  -1.4477  -1.1606  -0.8949  -0.8805  -0.7755  -0.6853  -0.6825
    -0.5690  -0.3533  -0.2553  -0.1740  -0.1204

          k =-0.4000 0.5605 0.0000 (270429 PWs)   bands (ev):

   -59.7743 -59.7641 -59.7611 -59.7537 -59.7143 -59.7100 -59.7069 -59.6997
   -35.1070 -35.0798 -35.0454 -35.0453 -34.9603 -34.8885 -34.8402 -34.8071
   -34.7795 -34.7753 -34.7673 -34.7583 -34.7468 -34.7281 -34.7065 -34.6869
   -34.6827 -34.6756 -34.6665 -34.6280 -34.3937 -34.3924 -34.3874 -34.3520
   -17.8044 -17.7282 -17.6646 -17.6045 -17.5531 -17.5481 -17.4907 -17.4797
   -10.7590 -10.7527 -10.6444 -10.5803 -10.2511 -10.0495  -9.8990  -9.6995
    -8.6250  -8.4686  -8.2376  -8.1251  -7.9050  -7.7667  -7.7546  -7.7070
    -7.5730  -7.5354  -7.4700  -7.3329  -7.2517  -7.1965  -7.1416  -7.1343
    -6.9986  -6.9005  -6.7178  -6.7080  -6.6874  -6.6206  -6.5130  -6.4575
    -5.9447  -5.8369  -5.5310  -5.4602  -3.9723  -3.9176  -3.8238  -3.6881
    -3.2934  -3.2715  -3.1780  -2.9451  -2.9106  -2.7995  -2.4306  -2.2570
    -1.7674  -1.3609  -1.3437  -0.9481  -0.9391  -0.9316  -0.7142  -0.6833
    -0.1933   0.0264   0.1359   0.1382   0.3934

     the Fermi energy is    -2.8939 ev

!    total energy              =   -1095.32089322 Ry
     estimated scf accuracy    <          3.0E-11 Ry
     smearing contrib. (-TS)   =      -0.00681363 Ry
     internal energy E=F+TS    =   -1095.31407959 Ry

     The total energy is F=E-TS. E is the sum of the following terms:
     one-electron contribution =  -11117.74524785 Ry
     hartree contribution      =    5536.46748376 Ry
     xc contribution           =    -164.77962761 Ry
     ewald contribution        =    4650.74331211 Ry

     convergence has been achieved in  13 iterations

     Forces acting on atoms (cartesian axes, Ry/au):

     atom    1 type  1   force =    -0.00000188    0.00000874   -0.00008135
     atom    2 type  1   force =     0.00000374    0.00002309   -0.00007143
     atom    3 type  1   force =     0.00000872   -0.00000398    0.00006924
     atom    4 type  1   force =    -0.00000982   -0.00001562    0.00006025
     atom    5 type  1   force =     0.00000389    0.00000346   -0.00007858
     atom    6 type  1   force =    -0.00000290    0.00000714   -0.00006973
     atom    7 type  1   force =     0.00000292   -0.00001254    0.00007152
     atom    8 type  1   force =    -0.00000558   -0.00001035    0.00006402
     atom    9 type  2   force =     0.00005096   -0.00001850   -0.00003150
     atom   10 type  2   force =    -0.00003038   -0.00001953   -0.00002141
     atom   11 type  2   force =     0.00002112   -0.00002565   -0.00003570
     atom   12 type  2   force =    -0.00003155   -0.00002339   -0.00003947
     atom   13 type  2   force =    -0.00000648    0.00001141    0.00004998
     atom   14 type  2   force =    -0.00000870    0.00002234    0.00002851
     atom   15 type  2   force =    -0.00000366    0.00002015    0.00003142
     atom   16 type  2   force =     0.00000935   -0.00001327   -0.00003418
     atom   17 type  2   force =     0.00001119   -0.00001358   -0.00002337
     atom   18 type  2   force =     0.00000228   -0.00002003   -0.00004068
     atom   19 type  2   force =    -0.00001471   -0.00001806   -0.00004542
     atom   20 type  2   force =     0.00001197    0.00001068    0.00004961
     atom   21 type  2   force =    -0.00001815    0.00001627    0.00004518
     atom   22 type  2   force =     0.00002331    0.00002749    0.00002676
     atom   23 type  2   force =    -0.00003693    0.00002669    0.00003077
     atom   24 type  2   force =     0.00002127    0.00001703    0.00004554

     Total force =     0.000280     Total SCF correction =     0.000008
     Energy error            =      2.6E-07 Ry
     Gradient error          =      8.1E-05 Ry/Bohr

     bfgs converged in   6 scf cycles and   5 bfgs steps
     (criteria: energy <  1.0E-05 Ry, force <  1.0E-04 Ry/Bohr)

     End of BFGS Geometry Optimization

     Final energy             =   -1095.3208932204 Ry

     File /home/fernando/serse/temp/NB.bfgs deleted, as requested
Begin final coordinates

ATOMIC_POSITIONS (angstrom)
Nb            0.0366295732        1.7800075364        1.2420656757
Nb            4.9566951076        1.7800523094        1.2433448386
Nb            2.4965314232        3.5358759209        1.0717473353
Nb            7.4168038929        3.5358809923        1.0720222476
Nb            0.0366278896        5.2914290987        1.2421380120
Nb            4.9567016326        5.2914819676        1.2434279974
Nb            2.4965384712        7.0473004011        1.0718181323
Nb            7.4168049785        7.0472948811        1.0720771314
C             1.8152242608        1.7802835793        2.3081885609
C             3.1773092055        1.7801659466        2.3086241444
C             6.7359980934        1.7801549546        2.3088474993
C             8.0981012743        1.7802544402        2.3083996763
C             0.7176514175        3.5356594974        0.0055193349
C             4.2756682556        3.5357770220        0.0065370743
C             5.6377522874        3.5358027547        0.0066393113
C             1.8152408954        5.2916699372        2.3082598622
C             3.1772915951        5.2915554680        2.3086980285
C             6.7360121188        5.2915567188        2.3089381969
C             8.0981014623        5.2916500124        2.3084882125
C             9.1956127135        3.5356915871        0.0056331662
C             0.7176657318        7.0470507533        0.0055947736
C             4.2756563561        7.0471597383        0.0065980098
C             5.6377675784        7.0471765450        0.0066923795
C             9.1956182214        7.0470722056        0.0057015347
End final coordinates



     Writing output data file /home/fernando/serse/temp/NB.save/
 
     init_run     :     19.19s CPU     19.64s WALL (       1 calls)
     electrons    :   6644.03s CPU   7025.47s WALL (       6 calls)
     update_pot   :      6.28s CPU      6.30s WALL (       5 calls)
     forces       :     31.43s CPU     31.57s WALL (       6 calls)

     Called by init_run:
     wfcinit      :     17.14s CPU     17.45s WALL (       1 calls)
     potinit      :      0.68s CPU      0.71s WALL (       1 calls)
     hinit0       :      0.40s CPU      0.46s WALL (       1 calls)

     Called by electrons:
     c_bands      :   5636.07s CPU   5878.10s WALL (     109 calls)
     sum_band     :    978.55s CPU    984.08s WALL (     109 calls)
     v_of_rho     :     20.99s CPU     21.61s WALL (     111 calls)
     mix_rho      :      8.32s CPU      9.10s WALL (     109 calls)

     Called by c_bands:
     init_us_2    :     50.72s CPU     50.98s WALL (    2925 calls)
     cegterg      :   5431.77s CPU   5458.88s WALL (    1417 calls)

     Called by *egterg:
     cdiaghg      :    100.44s CPU    100.73s WALL (    7624 calls)
     h_psi        :   4128.17s CPU   4151.26s WALL (    7754 calls)
     g_psi        :     16.44s CPU     16.52s WALL (    6324 calls)

     Called by h_psi:
     h_psi:calbec :    236.14s CPU    236.85s WALL (    7754 calls)
     vloc_psi     :   3578.67s CPU   3598.49s WALL (    7754 calls)
     add_vuspsi   :    256.98s CPU    257.66s WALL (    7754 calls)

     General routines
     calbec       :    253.79s CPU    254.54s WALL (    8066 calls)
     fft          :     12.83s CPU     13.00s WALL (    1125 calls)
     ffts         :      1.11s CPU      1.14s WALL (     109 calls)
     fftw         :   3191.13s CPU   3208.30s WALL (  902457 calls)
 
     Parallel routines
 
     PWSCF        :      1h51m CPU      2h 3m WALL

 
   This run was terminated on:  18:47:24  30Jan2025            

=------------------------------------------------------------------------------=
   JOB DONE.
=------------------------------------------------------------------------------=
